 Entering Gaussian System, Link 0=g09
 Input=/net/work/kozuch/EnniatinDef2TZVP/nP_EB11Ca_out/Freq/nP_EB11Ca_out.com
 Output=/net/work/kozuch/EnniatinDef2TZVP/nP_EB11Ca_out/Freq/nP_EB11Ca_out.log
 Initial command:
 /afs/math/software/gaussian/g09.D01/opt/@sys/l1.exe "/scratch/kozuch_g09.onV1g4N/Gau-6617.inp" -scrdir="/scratch/kozuch_g09.onV1g4N/"
 Entering Link 1 = /afs/math/software/gaussian/g09.D01/opt/@sys/l1.exe PID=      6618.
  
 Copyright (c) 1988,1990,1992,1993,1995,1998,2003,2009,2013,
            Gaussian, Inc.  All Rights Reserved.
  
 This is part of the Gaussian(R) 09 program.  It is based on
 the Gaussian(R) 03 system (copyright 2003, Gaussian, Inc.),
 the Gaussian(R) 98 system (copyright 1998, Gaussian, Inc.),
 the Gaussian(R) 94 system (copyright 1995, Gaussian, Inc.),
 the Gaussian 92(TM) system (copyright 1992, Gaussian, Inc.),
 the Gaussian 90(TM) system (copyright 1990, Gaussian, Inc.),
 the Gaussian 88(TM) system (copyright 1988, Gaussian, Inc.),
 the Gaussian 86(TM) system (copyright 1986, Carnegie Mellon
 University), and the Gaussian 82(TM) system (copyright 1983,
 Carnegie Mellon University). Gaussian is a federally registered
 trademark of Gaussian, Inc.
  
 This software contains proprietary and confidential information,
 including trade secrets, belonging to Gaussian, Inc.
  
 This software is provided under written license and may be
 used, copied, transmitted, or stored only in accord with that
 written license.
  
 The following legend is applicable only to US Government
 contracts under FAR:
  
                    RESTRICTED RIGHTS LEGEND
  
 Use, reproduction and disclosure by the US Government is
 subject to restrictions as set forth in subparagraphs (a)
 and (c) of the Commercial Computer Software - Restricted
 Rights clause in FAR 52.227-19.
  
 Gaussian, Inc.
 340 Quinnipiac St., Bldg. 40, Wallingford CT 06492
  
  
 ---------------------------------------------------------------
 Warning -- This program may not be used in any manner that
 competes with the business of Gaussian, Inc. or will provide
 assistance to any competitor of Gaussian, Inc.  The licensee
 of this program is prohibited from giving any competitor of
 Gaussian, Inc. access to this program.  By using this program,
 the user acknowledges that Gaussian, Inc. is engaged in the
 business of creating and licensing software in the field of
 computational chemistry and represents and warrants to the
 licensee that it is not a competitor of Gaussian, Inc. and that
 it will not use this program in any manner prohibited above.
 ---------------------------------------------------------------
  

 Cite this work as:
 Gaussian 09, Revision D.01,
 M. J. Frisch, G. W. Trucks, H. B. Schlegel, G. E. Scuseria, 
 M. A. Robb, J. R. Cheeseman, G. Scalmani, V. Barone, B. Mennucci, 
 G. A. Petersson, H. Nakatsuji, M. Caricato, X. Li, H. P. Hratchian, 
 A. F. Izmaylov, J. Bloino, G. Zheng, J. L. Sonnenberg, M. Hada, 
 M. Ehara, K. Toyota, R. Fukuda, J. Hasegawa, M. Ishida, T. Nakajima, 
 Y. Honda, O. Kitao, H. Nakai, T. Vreven, J. A. Montgomery, Jr., 
 J. E. Peralta, F. Ogliaro, M. Bearpark, J. J. Heyd, E. Brothers, 
 K. N. Kudin, V. N. Staroverov, T. Keith, R. Kobayashi, J. Normand, 
 K. Raghavachari, A. Rendell, J. C. Burant, S. S. Iyengar, J. Tomasi, 
 M. Cossi, N. Rega, J. M. Millam, M. Klene, J. E. Knox, J. B. Cross, 
 V. Bakken, C. Adamo, J. Jaramillo, R. Gomperts, R. E. Stratmann, 
 O. Yazyev, A. J. Austin, R. Cammi, C. Pomelli, J. W. Ochterski, 
 R. L. Martin, K. Morokuma, V. G. Zakrzewski, G. A. Voth, 
 P. Salvador, J. J. Dannenberg, S. Dapprich, A. D. Daniels, 
 O. Farkas, J. B. Foresman, J. V. Ortiz, J. Cioslowski, 
 and D. J. Fox, Gaussian, Inc., Wallingford CT, 2013.
 
 ******************************************
 Gaussian 09:  ES64L-G09RevD.01 24-Apr-2013
                27-Oct-2018 
 ******************************************
 %chk=nP_EB11Ca_out.chk
 %mem=4GB
 ----------------------------------------------------------------------
 # bp86/gen freq int=ultrafine geom=checkpoint guess=checkpoint nosymm 
 scf=(xqc,maxconventionalcycles=128) scrf=(solvent=n-Pentadecane)
 ----------------------------------------------------------------------
 1/10=4,29=2,30=1,38=1/1,3;
 2/12=2,15=1,40=1/2;
 3/5=7,11=2,14=-4,16=1,25=1,30=1,70=2201,71=2,72=151,74=404,75=-5,116=-2,140=1/1,2,3;
 4/5=1/1;
 5/5=2,8=3,13=1,38=6,53=151,85=128,98=1/2,8;
 8/6=4,10=90,11=11/1;
 11/6=1,8=1,9=11,15=111,16=1,31=1/1,2,10;
 10/6=1,31=1/2;
 6/7=2,8=2,9=2,10=2,18=1,28=1/1;
 7/8=1,10=1,25=1,30=1/1,2,3,16;
 1/10=4,30=1/3;
 99//99;
 -------------
 nP_EB11Ca_out
 -------------
 Structure from the checkpoint file:  "nP_EB11Ca_out.chk"
 Charge =  2 Multiplicity = 1
 Redundant internal coordinates found in file.
 N,0,-2.679001812,12.0679787243,12.963335181
 C,0,-3.636577151,13.1542310592,12.6015878884
 C,0,-3.0088278302,14.5130074998,12.9401779299
 O,0,-2.4391478124,14.7915865264,13.9873306453
 C,0,-2.7197526116,11.4918345942,14.3257527465
 C,0,-5.0430579507,12.9720570904,13.2516597301
 C,0,-5.7260654049,11.696440036,12.7233405548
 C,0,-5.9312836844,14.2033485992,12.9825823703
 O,0,-3.1707284711,15.3830509995,11.9011481317
 C,0,-0.9052352994,10.4929283252,12.1363810834
 C,0,-1.6802540782,11.8156598052,12.0937334381
 O,0,-1.4409260153,12.6164816443,11.1268695395
 C,0,-1.3584156822,9.5502565602,10.9863630013
 C,0,-2.8665064216,9.2459743414,11.0676598306
 C,0,-0.5385972304,8.2467206416,11.0125114484
 C,0,-2.6969423832,16.7435118366,12.1333460313
 O,0,0.50945578,10.7744305087,11.9112277636
 O,0,-0.6045280337,16.1345491586,11.0978313726
 O,0,2.0368308879,13.667721754,11.1756103751
 O,0,1.7529827299,15.8511983253,13.9505491808
 O,0,0.6517320456,11.699765524,13.9997978919
 N,0,3.1453724142,12.8410481118,12.9899685349
 N,0,-0.4334000829,17.4657209536,12.9463455964
 C,0,2.6720416607,11.4758321242,12.6182288295
 C,0,0.9857022359,17.7438756384,12.5816529999
 C,0,1.1804113284,11.3460048668,12.9540156632
 C,0,1.84245052,16.5184822378,12.9274655348
 C,0,3.6647533331,13.0766086683,14.3550610044
 C,0,-0.8960267588,17.7816272781,14.3161743429
 C,0,3.5297768408,10.3410726701,13.2604298533
 C,0,1.5311096744,19.0601356746,13.2205035043
 C,0,4.9697013032,10.3781718421,12.7134246692
 C,0,0.7633361675,20.2804567601,12.6774082357
 C,0,2.8958771085,8.9590071863,13.0050137151
 C,0,3.0414437615,19.2202642841,12.9541365158
 O,0,2.7273580759,16.2602253867,11.923422487
 C,0,3.6522368714,15.1592526723,12.1677081914
 C,0,2.8667007512,13.8425693378,12.1312970583
 C,0,-1.1637153503,16.7407557219,12.0750523499
 C,0,4.7086605181,15.2125936502,11.0285164646
 C,0,-3.2914763997,17.629280836,11.0030309786
 C,0,5.6941945575,14.0318843183,11.1116330926
 C,0,-2.8201132449,19.0905094919,11.1339214334
 C,0,5.4608165411,16.5564001674,11.0669429446
 C,0,-4.8297359772,17.5506531112,11.0128335245
 H,0,4.7194214492,12.7749982132,14.4523734393
 H,0,3.5366667461,14.1342077852,14.6153250326
 H,0,3.0430207012,12.4954112456,15.0522453686
 H,0,-1.7252441501,11.1103777127,14.5884257421
 H,0,-2.9469068518,12.3086556438,15.026319223
 H,0,-3.4801582361,10.6999167519,14.4144094794
 H,0,-0.0748109243,17.5419737979,15.0076517462
 H,0,-1.1760016618,18.8415842951,14.4196988256
 H,0,-1.7373074206,17.1278445441,14.5769674742
 H,0,4.1416190427,15.3210407058,13.1402481952
 H,0,4.1483142695,15.1406744968,10.0759533194
 H,0,1.0079080801,17.8628040148,11.4859807156
 H,0,1.3937408389,18.9986620958,14.3155762649
 H,0,-2.9163668495,17.2197451491,10.0449643671
 H,0,-4.913724014,12.8916311931,14.3464058861
 H,0,-1.1546439221,10.0858194525,10.0386018749
 H,0,-1.0118799753,9.9791332482,13.1036845023
 H,0,-3.75700042,13.1121398879,11.5069873004
 H,0,-3.0734910702,17.082254009,13.1100586487
 H,0,-5.2437134199,17.947171594,11.9582041866
 H,0,-5.2345369516,18.1628336783,10.1889252583
 H,0,-5.191435781,16.5189233833,10.8807519466
 H,0,-1.7257537165,19.1975058375,11.0423799762
 H,0,-3.2784840051,19.6970130021,10.3349509586
 H,0,-3.1329415474,19.5289660951,12.099579279
 H,0,3.6421141876,18.4188121506,13.4175746039
 H,0,3.2624612403,19.2395725621,11.8718647733
 H,0,3.384712265,20.1772019903,13.3817704233
 H,0,1.1208751,21.1987332933,13.17338645
 H,0,0.9347383484,20.3988140212,11.5916122826
 H,0,-0.3250686524,20.213946391,12.8443243699
 H,0,6.17210698,16.6062365238,10.2248513936
 H,0,4.776156541,17.4154196389,10.9874041261
 H,0,6.0423319135,16.6594472705,12.0015487859
 H,0,6.2305500727,14.0203465781,12.0781510886
 H,0,5.2019551761,13.0538613226,10.9759862557
 H,0,6.4528090675,14.1315632937,10.3173827619
 H,0,3.5482860909,10.4967885875,14.3545246626
 H,0,2.7691440704,11.3993955905,11.5227539395
 H,0,4.9830093396,10.1530521409,11.6309570872
 H,0,5.4623744625,11.3539264866,12.8628947147
 H,0,5.5827191343,9.6138946191,13.2205537118
 H,0,3.5528636625,8.1761863807,13.419532744
 H,0,1.9106669479,8.850671214,13.4906775476
 H,0,2.7784168066,8.7590485432,11.9249283969
 H,0,0.5429179054,8.4370224194,10.9284196711
 H,0,-0.7216055253,7.681462041,11.9448740055
 H,0,-0.8395171829,7.6040653197,10.1675686181
 H,0,-3.1273534659,8.7593700124,12.0255924167
 H,0,-3.4925960677,10.1472201078,10.9516669843
 H,0,-3.1434244127,8.5477048578,10.260196381
 H,0,-6.0561190814,14.3827638606,11.8996454955
 H,0,-6.9327884659,14.0293049631,13.4102125468
 H,0,-5.5307578693,15.1218839581,13.4455950468
 H,0,-5.1256791241,10.7863706232,12.8905398153
 H,0,-6.6949969809,11.5543199585,13.231346003
 H,0,-5.9260631856,11.7783591126,11.6390580234
 Ca,0,0.0179740707,14.1183547903,10.3799482038
 Recover connectivity data from disk.

 GradGradGradGradGradGradGradGradGradGradGradGradGradGradGradGradGradGrad
 Berny optimization.
 Initialization pass.
                           ----------------------------
                           !    Initial Parameters    !
                           ! (Angstroms and Degrees)  !
 --------------------------                            --------------------------
 ! Name  Definition              Value          Derivative Info.                !
 --------------------------------------------------------------------------------
 ! R1    R(1,2)                  1.4926         calculate D2E/DX2 analytically  !
 ! R2    R(1,5)                  1.4798         calculate D2E/DX2 analytically  !
 ! R3    R(1,11)                 1.3481         calculate D2E/DX2 analytically  !
 ! R4    R(2,3)                  1.5346         calculate D2E/DX2 analytically  !
 ! R5    R(2,6)                  1.5601         calculate D2E/DX2 analytically  !
 ! R6    R(2,63)                 1.102          calculate D2E/DX2 analytically  !
 ! R7    R(3,4)                  1.2242         calculate D2E/DX2 analytically  !
 ! R8    R(3,9)                  1.3648         calculate D2E/DX2 analytically  !
 ! R9    R(5,49)                 1.0971         calculate D2E/DX2 analytically  !
 ! R10   R(5,50)                 1.0998         calculate D2E/DX2 analytically  !
 ! R11   R(5,51)                 1.1015         calculate D2E/DX2 analytically  !
 ! R12   R(6,7)                  1.5404         calculate D2E/DX2 analytically  !
 ! R13   R(6,8)                  1.5419         calculate D2E/DX2 analytically  !
 ! R14   R(6,60)                 1.1053         calculate D2E/DX2 analytically  !
 ! R15   R(7,100)                1.103          calculate D2E/DX2 analytically  !
 ! R16   R(7,101)                1.1032         calculate D2E/DX2 analytically  !
 ! R17   R(7,102)                1.1056         calculate D2E/DX2 analytically  !
 ! R18   R(8,97)                 1.1048         calculate D2E/DX2 analytically  !
 ! R19   R(8,98)                 1.1028         calculate D2E/DX2 analytically  !
 ! R20   R(8,99)                 1.1039         calculate D2E/DX2 analytically  !
 ! R21   R(9,16)                 1.4592         calculate D2E/DX2 analytically  !
 ! R22   R(10,11)                1.5337         calculate D2E/DX2 analytically  !
 ! R23   R(10,13)                1.5545         calculate D2E/DX2 analytically  !
 ! R24   R(10,17)                1.4599         calculate D2E/DX2 analytically  !
 ! R25   R(10,62)                1.1005         calculate D2E/DX2 analytically  !
 ! R26   R(11,12)                1.2781         calculate D2E/DX2 analytically  !
 ! R27   R(12,103)               2.223          calculate D2E/DX2 analytically  !
 ! R28   R(13,14)                1.5406         calculate D2E/DX2 analytically  !
 ! R29   R(13,15)                1.5401         calculate D2E/DX2 analytically  !
 ! R30   R(13,61)                1.1075         calculate D2E/DX2 analytically  !
 ! R31   R(14,94)                1.1056         calculate D2E/DX2 analytically  !
 ! R32   R(14,95)                1.1035         calculate D2E/DX2 analytically  !
 ! R33   R(14,96)                1.1028         calculate D2E/DX2 analytically  !
 ! R34   R(15,91)                1.1013         calculate D2E/DX2 analytically  !
 ! R35   R(15,92)                1.1056         calculate D2E/DX2 analytically  !
 ! R36   R(15,93)                1.1034         calculate D2E/DX2 analytically  !
 ! R37   R(16,39)                1.5343         calculate D2E/DX2 analytically  !
 ! R38   R(16,41)                1.5542         calculate D2E/DX2 analytically  !
 ! R39   R(16,64)                1.1002         calculate D2E/DX2 analytically  !
 ! R40   R(17,26)                1.3654         calculate D2E/DX2 analytically  !
 ! R41   R(18,39)                1.2787         calculate D2E/DX2 analytically  !
 ! R42   R(18,103)               2.2289         calculate D2E/DX2 analytically  !
 ! R43   R(19,38)                1.2777         calculate D2E/DX2 analytically  !
 ! R44   R(19,103)               2.2163         calculate D2E/DX2 analytically  !
 ! R45   R(20,27)                1.2247         calculate D2E/DX2 analytically  !
 ! R46   R(21,26)                1.2241         calculate D2E/DX2 analytically  !
 ! R47   R(22,24)                1.492          calculate D2E/DX2 analytically  !
 ! R48   R(22,28)                1.4794         calculate D2E/DX2 analytically  !
 ! R49   R(22,38)                1.3483         calculate D2E/DX2 analytically  !
 ! R50   R(23,25)                1.4914         calculate D2E/DX2 analytically  !
 ! R51   R(23,29)                1.4799         calculate D2E/DX2 analytically  !
 ! R52   R(23,39)                1.3484         calculate D2E/DX2 analytically  !
 ! R53   R(24,26)                1.5345         calculate D2E/DX2 analytically  !
 ! R54   R(24,30)                1.5607         calculate D2E/DX2 analytically  !
 ! R55   R(24,84)                1.1024         calculate D2E/DX2 analytically  !
 ! R56   R(25,27)                1.5347         calculate D2E/DX2 analytically  !
 ! R57   R(25,31)                1.5615         calculate D2E/DX2 analytically  !
 ! R58   R(25,57)                1.1023         calculate D2E/DX2 analytically  !
 ! R59   R(27,36)                1.363          calculate D2E/DX2 analytically  !
 ! R60   R(28,46)                1.1013         calculate D2E/DX2 analytically  !
 ! R61   R(28,47)                1.0967         calculate D2E/DX2 analytically  !
 ! R62   R(28,48)                1.1002         calculate D2E/DX2 analytically  !
 ! R63   R(29,52)                1.1            calculate D2E/DX2 analytically  !
 ! R64   R(29,53)                1.1012         calculate D2E/DX2 analytically  !
 ! R65   R(29,54)                1.0969         calculate D2E/DX2 analytically  !
 ! R66   R(30,32)                1.5408         calculate D2E/DX2 analytically  !
 ! R67   R(30,34)                1.5418         calculate D2E/DX2 analytically  !
 ! R68   R(30,83)                1.1053         calculate D2E/DX2 analytically  !
 ! R69   R(31,33)                1.5407         calculate D2E/DX2 analytically  !
 ! R70   R(31,35)                1.542          calculate D2E/DX2 analytically  !
 ! R71   R(31,58)                1.1054         calculate D2E/DX2 analytically  !
 ! R72   R(32,85)                1.1057         calculate D2E/DX2 analytically  !
 ! R73   R(32,86)                1.1033         calculate D2E/DX2 analytically  !
 ! R74   R(32,87)                1.1032         calculate D2E/DX2 analytically  !
 ! R75   R(33,74)                1.1032         calculate D2E/DX2 analytically  !
 ! R76   R(33,75)                1.1056         calculate D2E/DX2 analytically  !
 ! R77   R(33,76)                1.1031         calculate D2E/DX2 analytically  !
 ! R78   R(34,88)                1.1028         calculate D2E/DX2 analytically  !
 ! R79   R(34,89)                1.1037         calculate D2E/DX2 analytically  !
 ! R80   R(34,90)                1.1047         calculate D2E/DX2 analytically  !
 ! R81   R(35,71)                1.1036         calculate D2E/DX2 analytically  !
 ! R82   R(35,72)                1.1048         calculate D2E/DX2 analytically  !
 ! R83   R(35,73)                1.1029         calculate D2E/DX2 analytically  !
 ! R84   R(36,37)                1.4585         calculate D2E/DX2 analytically  !
 ! R85   R(37,38)                1.5336         calculate D2E/DX2 analytically  !
 ! R86   R(37,40)                1.5546         calculate D2E/DX2 analytically  !
 ! R87   R(37,55)                1.1007         calculate D2E/DX2 analytically  !
 ! R88   R(40,42)                1.5402         calculate D2E/DX2 analytically  !
 ! R89   R(40,44)                1.5405         calculate D2E/DX2 analytically  !
 ! R90   R(40,56)                1.1075         calculate D2E/DX2 analytically  !
 ! R91   R(41,43)                1.5409         calculate D2E/DX2 analytically  !
 ! R92   R(41,45)                1.5403         calculate D2E/DX2 analytically  !
 ! R93   R(41,59)                1.1074         calculate D2E/DX2 analytically  !
 ! R94   R(42,80)                1.1054         calculate D2E/DX2 analytically  !
 ! R95   R(42,81)                1.1033         calculate D2E/DX2 analytically  !
 ! R96   R(42,82)                1.1028         calculate D2E/DX2 analytically  !
 ! R97   R(43,68)                1.1034         calculate D2E/DX2 analytically  !
 ! R98   R(43,69)                1.1029         calculate D2E/DX2 analytically  !
 ! R99   R(43,70)                1.1057         calculate D2E/DX2 analytically  !
 ! R100  R(44,77)                1.1034         calculate D2E/DX2 analytically  !
 ! R101  R(44,78)                1.1014         calculate D2E/DX2 analytically  !
 ! R102  R(44,79)                1.1056         calculate D2E/DX2 analytically  !
 ! R103  R(45,65)                1.1056         calculate D2E/DX2 analytically  !
 ! R104  R(45,66)                1.1034         calculate D2E/DX2 analytically  !
 ! R105  R(45,67)                1.1012         calculate D2E/DX2 analytically  !
 ! A1    A(2,1,5)              119.2635         calculate D2E/DX2 analytically  !
 ! A2    A(2,1,11)             117.0766         calculate D2E/DX2 analytically  !
 ! A3    A(5,1,11)             122.7806         calculate D2E/DX2 analytically  !
 ! A4    A(1,2,3)              109.1764         calculate D2E/DX2 analytically  !
 ! A5    A(1,2,6)              113.1047         calculate D2E/DX2 analytically  !
 ! A6    A(1,2,63)             106.4421         calculate D2E/DX2 analytically  !
 ! A7    A(3,2,6)              112.3483         calculate D2E/DX2 analytically  !
 ! A8    A(3,2,63)             107.318          calculate D2E/DX2 analytically  !
 ! A9    A(6,2,63)             108.1138         calculate D2E/DX2 analytically  !
 ! A10   A(2,3,4)              125.4909         calculate D2E/DX2 analytically  !
 ! A11   A(2,3,9)              110.3616         calculate D2E/DX2 analytically  !
 ! A12   A(4,3,9)              124.1474         calculate D2E/DX2 analytically  !
 ! A13   A(1,5,49)             109.3206         calculate D2E/DX2 analytically  !
 ! A14   A(1,5,50)             107.6373         calculate D2E/DX2 analytically  !
 ! A15   A(1,5,51)             111.9034         calculate D2E/DX2 analytically  !
 ! A16   A(49,5,50)            107.0349         calculate D2E/DX2 analytically  !
 ! A17   A(49,5,51)            110.8892         calculate D2E/DX2 analytically  !
 ! A18   A(50,5,51)            109.8839         calculate D2E/DX2 analytically  !
 ! A19   A(2,6,7)              110.7027         calculate D2E/DX2 analytically  !
 ! A20   A(2,6,8)              110.6936         calculate D2E/DX2 analytically  !
 ! A21   A(2,6,60)             108.4038         calculate D2E/DX2 analytically  !
 ! A22   A(7,6,8)              110.2439         calculate D2E/DX2 analytically  !
 ! A23   A(7,6,60)             109.3496         calculate D2E/DX2 analytically  !
 ! A24   A(8,6,60)             107.3592         calculate D2E/DX2 analytically  !
 ! A25   A(6,7,100)            112.9492         calculate D2E/DX2 analytically  !
 ! A26   A(6,7,101)            109.7656         calculate D2E/DX2 analytically  !
 ! A27   A(6,7,102)            110.8063         calculate D2E/DX2 analytically  !
 ! A28   A(100,7,101)          107.5758         calculate D2E/DX2 analytically  !
 ! A29   A(100,7,102)          107.9541         calculate D2E/DX2 analytically  !
 ! A30   A(101,7,102)          107.5935         calculate D2E/DX2 analytically  !
 ! A31   A(6,8,97)             111.4593         calculate D2E/DX2 analytically  !
 ! A32   A(6,8,98)             109.2355         calculate D2E/DX2 analytically  !
 ! A33   A(6,8,99)             112.4746         calculate D2E/DX2 analytically  !
 ! A34   A(97,8,98)            107.6448         calculate D2E/DX2 analytically  !
 ! A35   A(97,8,99)            108.4829         calculate D2E/DX2 analytically  !
 ! A36   A(98,8,99)            107.3488         calculate D2E/DX2 analytically  !
 ! A37   A(3,9,16)             115.7651         calculate D2E/DX2 analytically  !
 ! A38   A(11,10,13)           110.8006         calculate D2E/DX2 analytically  !
 ! A39   A(11,10,17)           108.6086         calculate D2E/DX2 analytically  !
 ! A40   A(11,10,62)           112.219          calculate D2E/DX2 analytically  !
 ! A41   A(13,10,17)           106.5787         calculate D2E/DX2 analytically  !
 ! A42   A(13,10,62)           109.8095         calculate D2E/DX2 analytically  !
 ! A43   A(17,10,62)           108.6326         calculate D2E/DX2 analytically  !
 ! A44   A(1,11,10)            121.1897         calculate D2E/DX2 analytically  !
 ! A45   A(1,11,12)            120.6272         calculate D2E/DX2 analytically  !
 ! A46   A(10,11,12)           117.8285         calculate D2E/DX2 analytically  !
 ! A47   A(11,12,103)          143.1681         calculate D2E/DX2 analytically  !
 ! A48   A(10,13,14)           111.4751         calculate D2E/DX2 analytically  !
 ! A49   A(10,13,15)           110.213          calculate D2E/DX2 analytically  !
 ! A50   A(10,13,61)           106.6305         calculate D2E/DX2 analytically  !
 ! A51   A(14,13,15)           110.6711         calculate D2E/DX2 analytically  !
 ! A52   A(14,13,61)           108.7094         calculate D2E/DX2 analytically  !
 ! A53   A(15,13,61)           109.0186         calculate D2E/DX2 analytically  !
 ! A54   A(13,14,94)           111.3203         calculate D2E/DX2 analytically  !
 ! A55   A(13,14,95)           112.8635         calculate D2E/DX2 analytically  !
 ! A56   A(13,14,96)           109.4028         calculate D2E/DX2 analytically  !
 ! A57   A(94,14,95)           108.4612         calculate D2E/DX2 analytically  !
 ! A58   A(94,14,96)           107.2447         calculate D2E/DX2 analytically  !
 ! A59   A(95,14,96)           107.3187         calculate D2E/DX2 analytically  !
 ! A60   A(13,15,91)           112.0353         calculate D2E/DX2 analytically  !
 ! A61   A(13,15,92)           111.0352         calculate D2E/DX2 analytically  !
 ! A62   A(13,15,93)           109.5597         calculate D2E/DX2 analytically  !
 ! A63   A(91,15,92)           108.3781         calculate D2E/DX2 analytically  !
 ! A64   A(91,15,93)           108.0581         calculate D2E/DX2 analytically  !
 ! A65   A(92,15,93)           107.6294         calculate D2E/DX2 analytically  !
 ! A66   A(9,16,39)            108.4656         calculate D2E/DX2 analytically  !
 ! A67   A(9,16,41)            106.9428         calculate D2E/DX2 analytically  !
 ! A68   A(9,16,64)            108.4931         calculate D2E/DX2 analytically  !
 ! A69   A(39,16,41)           110.8327         calculate D2E/DX2 analytically  !
 ! A70   A(39,16,64)           112.1034         calculate D2E/DX2 analytically  !
 ! A71   A(41,16,64)           109.8294         calculate D2E/DX2 analytically  !
 ! A72   A(10,17,26)           116.0477         calculate D2E/DX2 analytically  !
 ! A73   A(39,18,103)          142.8548         calculate D2E/DX2 analytically  !
 ! A74   A(38,19,103)          146.3386         calculate D2E/DX2 analytically  !
 ! A75   A(24,22,28)           119.1415         calculate D2E/DX2 analytically  !
 ! A76   A(24,22,38)           117.0923         calculate D2E/DX2 analytically  !
 ! A77   A(28,22,38)           122.8135         calculate D2E/DX2 analytically  !
 ! A78   A(25,23,29)           118.9452         calculate D2E/DX2 analytically  !
 ! A79   A(25,23,39)           117.2352         calculate D2E/DX2 analytically  !
 ! A80   A(29,23,39)           122.9263         calculate D2E/DX2 analytically  !
 ! A81   A(22,24,26)           109.3469         calculate D2E/DX2 analytically  !
 ! A82   A(22,24,30)           112.8564         calculate D2E/DX2 analytically  !
 ! A83   A(22,24,84)           106.4445         calculate D2E/DX2 analytically  !
 ! A84   A(26,24,30)           112.4998         calculate D2E/DX2 analytically  !
 ! A85   A(26,24,84)           107.29           calculate D2E/DX2 analytically  !
 ! A86   A(30,24,84)           108.0633         calculate D2E/DX2 analytically  !
 ! A87   A(23,25,27)           109.0979         calculate D2E/DX2 analytically  !
 ! A88   A(23,25,31)           112.9258         calculate D2E/DX2 analytically  !
 ! A89   A(23,25,57)           106.4003         calculate D2E/DX2 analytically  !
 ! A90   A(27,25,31)           112.6997         calculate D2E/DX2 analytically  !
 ! A91   A(27,25,57)           107.3899         calculate D2E/DX2 analytically  !
 ! A92   A(31,25,57)           107.9799         calculate D2E/DX2 analytically  !
 ! A93   A(17,26,21)           124.1417         calculate D2E/DX2 analytically  !
 ! A94   A(17,26,24)           110.2415         calculate D2E/DX2 analytically  !
 ! A95   A(21,26,24)           125.6167         calculate D2E/DX2 analytically  !
 ! A96   A(20,27,25)           125.6261         calculate D2E/DX2 analytically  !
 ! A97   A(20,27,36)           124.0236         calculate D2E/DX2 analytically  !
 ! A98   A(25,27,36)           110.349          calculate D2E/DX2 analytically  !
 ! A99   A(22,28,46)           111.9714         calculate D2E/DX2 analytically  !
 ! A100  A(22,28,47)           109.3618         calculate D2E/DX2 analytically  !
 ! A101  A(22,28,48)           107.5906         calculate D2E/DX2 analytically  !
 ! A102  A(46,28,47)           110.794          calculate D2E/DX2 analytically  !
 ! A103  A(46,28,48)           109.9092         calculate D2E/DX2 analytically  !
 ! A104  A(47,28,48)           107.0413         calculate D2E/DX2 analytically  !
 ! A105  A(23,29,52)           107.5758         calculate D2E/DX2 analytically  !
 ! A106  A(23,29,53)           111.8365         calculate D2E/DX2 analytically  !
 ! A107  A(23,29,54)           109.4258         calculate D2E/DX2 analytically  !
 ! A108  A(52,29,53)           109.903          calculate D2E/DX2 analytically  !
 ! A109  A(52,29,54)           107.0541         calculate D2E/DX2 analytically  !
 ! A110  A(53,29,54)           110.8768         calculate D2E/DX2 analytically  !
 ! A111  A(24,30,32)           110.4885         calculate D2E/DX2 analytically  !
 ! A112  A(24,30,34)           110.9546         calculate D2E/DX2 analytically  !
 ! A113  A(24,30,83)           108.3057         calculate D2E/DX2 analytically  !
 ! A114  A(32,30,34)           110.304          calculate D2E/DX2 analytically  !
 ! A115  A(32,30,83)           109.4137         calculate D2E/DX2 analytically  !
 ! A116  A(34,30,83)           107.2869         calculate D2E/DX2 analytically  !
 ! A117  A(25,31,33)           110.451          calculate D2E/DX2 analytically  !
 ! A118  A(25,31,35)           111.0381         calculate D2E/DX2 analytically  !
 ! A119  A(25,31,58)           108.3632         calculate D2E/DX2 analytically  !
 ! A120  A(33,31,35)           110.1798         calculate D2E/DX2 analytically  !
 ! A121  A(33,31,58)           109.3505         calculate D2E/DX2 analytically  !
 ! A122  A(35,31,58)           107.3756         calculate D2E/DX2 analytically  !
 ! A123  A(30,32,85)           110.7263         calculate D2E/DX2 analytically  !
 ! A124  A(30,32,86)           112.9877         calculate D2E/DX2 analytically  !
 ! A125  A(30,32,87)           109.8414         calculate D2E/DX2 analytically  !
 ! A126  A(85,32,86)           107.8983         calculate D2E/DX2 analytically  !
 ! A127  A(85,32,87)           107.5949         calculate D2E/DX2 analytically  !
 ! A128  A(86,32,87)           107.5954         calculate D2E/DX2 analytically  !
 ! A129  A(31,33,74)           109.8352         calculate D2E/DX2 analytically  !
 ! A130  A(31,33,75)           110.7158         calculate D2E/DX2 analytically  !
 ! A131  A(31,33,76)           112.9914         calculate D2E/DX2 analytically  !
 ! A132  A(74,33,75)           107.5884         calculate D2E/DX2 analytically  !
 ! A133  A(74,33,76)           107.5731         calculate D2E/DX2 analytically  !
 ! A134  A(75,33,76)           107.9397         calculate D2E/DX2 analytically  !
 ! A135  A(30,34,88)           109.2134         calculate D2E/DX2 analytically  !
 ! A136  A(30,34,89)           112.4625         calculate D2E/DX2 analytically  !
 ! A137  A(30,34,90)           111.5885         calculate D2E/DX2 analytically  !
 ! A138  A(88,34,89)           107.2588         calculate D2E/DX2 analytically  !
 ! A139  A(88,34,90)           107.5987         calculate D2E/DX2 analytically  !
 ! A140  A(89,34,90)           108.514          calculate D2E/DX2 analytically  !
 ! A141  A(31,35,71)           112.6538         calculate D2E/DX2 analytically  !
 ! A142  A(31,35,72)           111.5301         calculate D2E/DX2 analytically  !
 ! A143  A(31,35,73)           109.1457         calculate D2E/DX2 analytically  !
 ! A144  A(71,35,72)           108.3721         calculate D2E/DX2 analytically  !
 ! A145  A(71,35,73)           107.3301         calculate D2E/DX2 analytically  !
 ! A146  A(72,35,73)           107.6019         calculate D2E/DX2 analytically  !
 ! A147  A(27,36,37)           115.5525         calculate D2E/DX2 analytically  !
 ! A148  A(36,37,38)           108.6206         calculate D2E/DX2 analytically  !
 ! A149  A(36,37,40)           106.3972         calculate D2E/DX2 analytically  !
 ! A150  A(36,37,55)           108.6012         calculate D2E/DX2 analytically  !
 ! A151  A(38,37,40)           111.1087         calculate D2E/DX2 analytically  !
 ! A152  A(38,37,55)           112.0186         calculate D2E/DX2 analytically  !
 ! A153  A(40,37,55)           109.8954         calculate D2E/DX2 analytically  !
 ! A154  A(19,38,22)           120.5917         calculate D2E/DX2 analytically  !
 ! A155  A(19,38,37)           117.8989         calculate D2E/DX2 analytically  !
 ! A156  A(22,38,37)           121.1127         calculate D2E/DX2 analytically  !
 ! A157  A(16,39,18)           117.8313         calculate D2E/DX2 analytically  !
 ! A158  A(16,39,23)           121.0458         calculate D2E/DX2 analytically  !
 ! A159  A(18,39,23)           120.7878         calculate D2E/DX2 analytically  !
 ! A160  A(37,40,42)           111.653          calculate D2E/DX2 analytically  !
 ! A161  A(37,40,44)           110.0879         calculate D2E/DX2 analytically  !
 ! A162  A(37,40,56)           106.5131         calculate D2E/DX2 analytically  !
 ! A163  A(42,40,44)           110.7905         calculate D2E/DX2 analytically  !
 ! A164  A(42,40,56)           108.686          calculate D2E/DX2 analytically  !
 ! A165  A(44,40,56)           108.9745         calculate D2E/DX2 analytically  !
 ! A166  A(16,41,43)           111.2008         calculate D2E/DX2 analytically  !
 ! A167  A(16,41,45)           110.3832         calculate D2E/DX2 analytically  !
 ! A168  A(16,41,59)           106.7888         calculate D2E/DX2 analytically  !
 ! A169  A(43,41,45)           110.6926         calculate D2E/DX2 analytically  !
 ! A170  A(43,41,59)           108.6968         calculate D2E/DX2 analytically  !
 ! A171  A(45,41,59)           108.9602         calculate D2E/DX2 analytically  !
 ! A172  A(40,42,80)           111.4476         calculate D2E/DX2 analytically  !
 ! A173  A(40,42,81)           112.7951         calculate D2E/DX2 analytically  !
 ! A174  A(40,42,82)           109.3899         calculate D2E/DX2 analytically  !
 ! A175  A(80,42,81)           108.3442         calculate D2E/DX2 analytically  !
 ! A176  A(80,42,82)           107.2698         calculate D2E/DX2 analytically  !
 ! A177  A(81,42,82)           107.3661         calculate D2E/DX2 analytically  !
 ! A178  A(41,43,68)           112.8487         calculate D2E/DX2 analytically  !
 ! A179  A(41,43,69)           109.4398         calculate D2E/DX2 analytically  !
 ! A180  A(41,43,70)           111.3254         calculate D2E/DX2 analytically  !
 ! A181  A(68,43,69)           107.3849         calculate D2E/DX2 analytically  !
 ! A182  A(68,43,70)           108.3373         calculate D2E/DX2 analytically  !
 ! A183  A(69,43,70)           107.2794         calculate D2E/DX2 analytically  !
 ! A184  A(40,44,77)           109.5792         calculate D2E/DX2 analytically  !
 ! A185  A(40,44,78)           112.0279         calculate D2E/DX2 analytically  !
 ! A186  A(40,44,79)           111.0523         calculate D2E/DX2 analytically  !
 ! A187  A(77,44,78)           108.0826         calculate D2E/DX2 analytically  !
 ! A188  A(77,44,79)           107.5705         calculate D2E/DX2 analytically  !
 ! A189  A(78,44,79)           108.381          calculate D2E/DX2 analytically  !
 ! A190  A(41,45,65)           111.1664         calculate D2E/DX2 analytically  !
 ! A191  A(41,45,66)           109.47           calculate D2E/DX2 analytically  !
 ! A192  A(41,45,67)           112.0288         calculate D2E/DX2 analytically  !
 ! A193  A(65,45,66)           107.5863         calculate D2E/DX2 analytically  !
 ! A194  A(65,45,67)           108.396          calculate D2E/DX2 analytically  !
 ! A195  A(66,45,67)           108.0437         calculate D2E/DX2 analytically  !
 ! A196  A(12,103,18)          108.6401         calculate D2E/DX2 analytically  !
 ! A197  A(12,103,19)          109.8654         calculate D2E/DX2 analytically  !
 ! A198  A(18,103,19)          108.8266         calculate D2E/DX2 analytically  !
 ! D1    D(5,1,2,3)             89.4641         calculate D2E/DX2 analytically  !
 ! D2    D(5,1,2,6)            -36.4133         calculate D2E/DX2 analytically  !
 ! D3    D(5,1,2,63)          -154.99           calculate D2E/DX2 analytically  !
 ! D4    D(11,1,2,3)           -80.1044         calculate D2E/DX2 analytically  !
 ! D5    D(11,1,2,6)           154.0183         calculate D2E/DX2 analytically  !
 ! D6    D(11,1,2,63)           35.4415         calculate D2E/DX2 analytically  !
 ! D7    D(2,1,5,49)          -152.6068         calculate D2E/DX2 analytically  !
 ! D8    D(2,1,5,50)           -36.6804         calculate D2E/DX2 analytically  !
 ! D9    D(2,1,5,51)            84.1494         calculate D2E/DX2 analytically  !
 ! D10   D(11,1,5,49)           16.3381         calculate D2E/DX2 analytically  !
 ! D11   D(11,1,5,50)          132.2645         calculate D2E/DX2 analytically  !
 ! D12   D(11,1,5,51)         -106.9057         calculate D2E/DX2 analytically  !
 ! D13   D(2,1,11,10)         -161.6356         calculate D2E/DX2 analytically  !
 ! D14   D(2,1,11,12)           11.3797         calculate D2E/DX2 analytically  !
 ! D15   D(5,1,11,10)           29.193          calculate D2E/DX2 analytically  !
 ! D16   D(5,1,11,12)         -157.7917         calculate D2E/DX2 analytically  !
 ! D17   D(1,2,3,4)            -46.3362         calculate D2E/DX2 analytically  !
 ! D18   D(1,2,3,9)            133.5647         calculate D2E/DX2 analytically  !
 ! D19   D(6,2,3,4)             79.9757         calculate D2E/DX2 analytically  !
 ! D20   D(6,2,3,9)           -100.1234         calculate D2E/DX2 analytically  !
 ! D21   D(63,2,3,4)          -161.3189         calculate D2E/DX2 analytically  !
 ! D22   D(63,2,3,9)            18.582          calculate D2E/DX2 analytically  !
 ! D23   D(1,2,6,7)            -64.249          calculate D2E/DX2 analytically  !
 ! D24   D(1,2,6,8)            173.1919         calculate D2E/DX2 analytically  !
 ! D25   D(1,2,6,60)            55.6876         calculate D2E/DX2 analytically  !
 ! D26   D(3,2,6,7)            171.5901         calculate D2E/DX2 analytically  !
 ! D27   D(3,2,6,8)             49.031          calculate D2E/DX2 analytically  !
 ! D28   D(3,2,6,60)           -68.4733         calculate D2E/DX2 analytically  !
 ! D29   D(63,2,6,7)            53.3535         calculate D2E/DX2 analytically  !
 ! D30   D(63,2,6,8)           -69.2056         calculate D2E/DX2 analytically  !
 ! D31   D(63,2,6,60)          173.2901         calculate D2E/DX2 analytically  !
 ! D32   D(2,3,9,16)           175.9507         calculate D2E/DX2 analytically  !
 ! D33   D(4,3,9,16)            -4.1468         calculate D2E/DX2 analytically  !
 ! D34   D(2,6,7,100)           57.0079         calculate D2E/DX2 analytically  !
 ! D35   D(2,6,7,101)          177.0481         calculate D2E/DX2 analytically  !
 ! D36   D(2,6,7,102)          -64.2574         calculate D2E/DX2 analytically  !
 ! D37   D(8,6,7,100)          179.8286         calculate D2E/DX2 analytically  !
 ! D38   D(8,6,7,101)          -60.1311         calculate D2E/DX2 analytically  !
 ! D39   D(8,6,7,102)           58.5633         calculate D2E/DX2 analytically  !
 ! D40   D(60,6,7,100)         -62.3607         calculate D2E/DX2 analytically  !
 ! D41   D(60,6,7,101)          57.6796         calculate D2E/DX2 analytically  !
 ! D42   D(60,6,7,102)         176.374          calculate D2E/DX2 analytically  !
 ! D43   D(2,6,8,97)            58.5068         calculate D2E/DX2 analytically  !
 ! D44   D(2,6,8,98)           177.3302         calculate D2E/DX2 analytically  !
 ! D45   D(2,6,8,99)           -63.5834         calculate D2E/DX2 analytically  !
 ! D46   D(7,6,8,97)           -64.3193         calculate D2E/DX2 analytically  !
 ! D47   D(7,6,8,98)            54.5042         calculate D2E/DX2 analytically  !
 ! D48   D(7,6,8,99)           173.5906         calculate D2E/DX2 analytically  !
 ! D49   D(60,6,8,97)          176.6497         calculate D2E/DX2 analytically  !
 ! D50   D(60,6,8,98)          -64.5269         calculate D2E/DX2 analytically  !
 ! D51   D(60,6,8,99)           54.5595         calculate D2E/DX2 analytically  !
 ! D52   D(3,9,16,39)           74.489          calculate D2E/DX2 analytically  !
 ! D53   D(3,9,16,41)         -165.928          calculate D2E/DX2 analytically  !
 ! D54   D(3,9,16,64)          -47.5158         calculate D2E/DX2 analytically  !
 ! D55   D(13,10,11,1)         103.805          calculate D2E/DX2 analytically  !
 ! D56   D(13,10,11,12)        -69.3996         calculate D2E/DX2 analytically  !
 ! D57   D(17,10,11,1)        -139.4533         calculate D2E/DX2 analytically  !
 ! D58   D(17,10,11,12)         47.3421         calculate D2E/DX2 analytically  !
 ! D59   D(62,10,11,1)         -19.3408         calculate D2E/DX2 analytically  !
 ! D60   D(62,10,11,12)        167.4546         calculate D2E/DX2 analytically  !
 ! D61   D(11,10,13,14)        -58.6287         calculate D2E/DX2 analytically  !
 ! D62   D(11,10,13,15)        178.0673         calculate D2E/DX2 analytically  !
 ! D63   D(11,10,13,61)         59.8775         calculate D2E/DX2 analytically  !
 ! D64   D(17,10,13,14)       -176.6142         calculate D2E/DX2 analytically  !
 ! D65   D(17,10,13,15)         60.0819         calculate D2E/DX2 analytically  !
 ! D66   D(17,10,13,61)        -58.108          calculate D2E/DX2 analytically  !
 ! D67   D(62,10,13,14)         65.898          calculate D2E/DX2 analytically  !
 ! D68   D(62,10,13,15)        -57.406          calculate D2E/DX2 analytically  !
 ! D69   D(62,10,13,61)       -175.5958         calculate D2E/DX2 analytically  !
 ! D70   D(11,10,17,26)         74.2161         calculate D2E/DX2 analytically  !
 ! D71   D(13,10,17,26)       -166.3645         calculate D2E/DX2 analytically  !
 ! D72   D(62,10,17,26)        -48.1009         calculate D2E/DX2 analytically  !
 ! D73   D(1,11,12,103)        109.0914         calculate D2E/DX2 analytically  !
 ! D74   D(10,11,12,103)       -77.6641         calculate D2E/DX2 analytically  !
 ! D75   D(11,12,103,18)       -91.5151         calculate D2E/DX2 analytically  !
 ! D76   D(11,12,103,19)        27.4316         calculate D2E/DX2 analytically  !
 ! D77   D(10,13,14,94)        -59.6213         calculate D2E/DX2 analytically  !
 ! D78   D(10,13,14,95)         62.6197         calculate D2E/DX2 analytically  !
 ! D79   D(10,13,14,96)       -177.9715         calculate D2E/DX2 analytically  !
 ! D80   D(15,13,14,94)         63.4214         calculate D2E/DX2 analytically  !
 ! D81   D(15,13,14,95)       -174.3376         calculate D2E/DX2 analytically  !
 ! D82   D(15,13,14,96)        -54.9288         calculate D2E/DX2 analytically  !
 ! D83   D(61,13,14,94)       -176.8756         calculate D2E/DX2 analytically  !
 ! D84   D(61,13,14,95)        -54.6346         calculate D2E/DX2 analytically  !
 ! D85   D(61,13,14,96)         64.7742         calculate D2E/DX2 analytically  !
 ! D86   D(10,13,15,91)        -57.748          calculate D2E/DX2 analytically  !
 ! D87   D(10,13,15,92)         63.5887         calculate D2E/DX2 analytically  !
 ! D88   D(10,13,15,93)       -177.6614         calculate D2E/DX2 analytically  !
 ! D89   D(14,13,15,91)        178.4806         calculate D2E/DX2 analytically  !
 ! D90   D(14,13,15,92)        -60.1826         calculate D2E/DX2 analytically  !
 ! D91   D(14,13,15,93)         58.5673         calculate D2E/DX2 analytically  !
 ! D92   D(61,13,15,91)         58.9635         calculate D2E/DX2 analytically  !
 ! D93   D(61,13,15,92)       -179.6997         calculate D2E/DX2 analytically  !
 ! D94   D(61,13,15,93)        -60.9498         calculate D2E/DX2 analytically  !
 ! D95   D(9,16,39,18)          47.2394         calculate D2E/DX2 analytically  !
 ! D96   D(9,16,39,23)        -139.3574         calculate D2E/DX2 analytically  !
 ! D97   D(41,16,39,18)        -69.8765         calculate D2E/DX2 analytically  !
 ! D98   D(41,16,39,23)        103.5268         calculate D2E/DX2 analytically  !
 ! D99   D(64,16,39,18)        167.0115         calculate D2E/DX2 analytically  !
 ! D100  D(64,16,39,23)        -19.5853         calculate D2E/DX2 analytically  !
 ! D101  D(9,16,41,43)        -178.5259         calculate D2E/DX2 analytically  !
 ! D102  D(9,16,41,45)          58.2135         calculate D2E/DX2 analytically  !
 ! D103  D(9,16,41,59)         -60.0905         calculate D2E/DX2 analytically  !
 ! D104  D(39,16,41,43)        -60.4794         calculate D2E/DX2 analytically  !
 ! D105  D(39,16,41,45)        176.26           calculate D2E/DX2 analytically  !
 ! D106  D(39,16,41,59)         57.956          calculate D2E/DX2 analytically  !
 ! D107  D(64,16,41,43)         63.9361         calculate D2E/DX2 analytically  !
 ! D108  D(64,16,41,45)        -59.3244         calculate D2E/DX2 analytically  !
 ! D109  D(64,16,41,59)       -177.6284         calculate D2E/DX2 analytically  !
 ! D110  D(10,17,26,21)         -4.7566         calculate D2E/DX2 analytically  !
 ! D111  D(10,17,26,24)        175.3149         calculate D2E/DX2 analytically  !
 ! D112  D(103,18,39,16)       -81.4709         calculate D2E/DX2 analytically  !
 ! D113  D(103,18,39,23)       105.108          calculate D2E/DX2 analytically  !
 ! D114  D(39,18,103,12)        33.2944         calculate D2E/DX2 analytically  !
 ! D115  D(39,18,103,19)       -86.303          calculate D2E/DX2 analytically  !
 ! D116  D(103,19,38,22)       107.6083         calculate D2E/DX2 analytically  !
 ! D117  D(103,19,38,37)       -79.5415         calculate D2E/DX2 analytically  !
 ! D118  D(38,19,103,12)       -88.3009         calculate D2E/DX2 analytically  !
 ! D119  D(38,19,103,18)        30.5312         calculate D2E/DX2 analytically  !
 ! D120  D(28,22,24,26)         89.4087         calculate D2E/DX2 analytically  !
 ! D121  D(28,22,24,30)        -36.6167         calculate D2E/DX2 analytically  !
 ! D122  D(28,22,24,84)       -154.9926         calculate D2E/DX2 analytically  !
 ! D123  D(38,22,24,26)        -79.7425         calculate D2E/DX2 analytically  !
 ! D124  D(38,22,24,30)        154.2321         calculate D2E/DX2 analytically  !
 ! D125  D(38,22,24,84)         35.8562         calculate D2E/DX2 analytically  !
 ! D126  D(24,22,28,46)         82.4118         calculate D2E/DX2 analytically  !
 ! D127  D(24,22,28,47)       -154.3902         calculate D2E/DX2 analytically  !
 ! D128  D(24,22,28,48)        -38.4601         calculate D2E/DX2 analytically  !
 ! D129  D(38,22,28,46)       -109.0888         calculate D2E/DX2 analytically  !
 ! D130  D(38,22,28,47)         14.1091         calculate D2E/DX2 analytically  !
 ! D131  D(38,22,28,48)        130.0393         calculate D2E/DX2 analytically  !
 ! D132  D(24,22,38,19)         12.0789         calculate D2E/DX2 analytically  !
 ! D133  D(24,22,38,37)       -160.5393         calculate D2E/DX2 analytically  !
 ! D134  D(28,22,38,19)       -156.641          calculate D2E/DX2 analytically  !
 ! D135  D(28,22,38,37)         30.7407         calculate D2E/DX2 analytically  !
 ! D136  D(29,23,25,27)         88.478          calculate D2E/DX2 analytically  !
 ! D137  D(29,23,25,31)        -37.6679         calculate D2E/DX2 analytically  !
 ! D138  D(29,23,25,57)       -155.9527         calculate D2E/DX2 analytically  !
 ! D139  D(39,23,25,27)        -81.0256         calculate D2E/DX2 analytically  !
 ! D140  D(39,23,25,31)        152.8284         calculate D2E/DX2 analytically  !
 ! D141  D(39,23,25,57)         34.5436         calculate D2E/DX2 analytically  !
 ! D142  D(25,23,29,52)        -37.4621         calculate D2E/DX2 analytically  !
 ! D143  D(25,23,29,53)         83.3102         calculate D2E/DX2 analytically  !
 ! D144  D(25,23,29,54)       -153.4329         calculate D2E/DX2 analytically  !
 ! D145  D(39,23,29,52)        131.4115         calculate D2E/DX2 analytically  !
 ! D146  D(39,23,29,53)       -107.8162         calculate D2E/DX2 analytically  !
 ! D147  D(39,23,29,54)         15.4407         calculate D2E/DX2 analytically  !
 ! D148  D(25,23,39,16)       -161.8295         calculate D2E/DX2 analytically  !
 ! D149  D(25,23,39,18)         11.379          calculate D2E/DX2 analytically  !
 ! D150  D(29,23,39,16)         29.1189         calculate D2E/DX2 analytically  !
 ! D151  D(29,23,39,18)       -157.6727         calculate D2E/DX2 analytically  !
 ! D152  D(22,24,26,17)        133.9693         calculate D2E/DX2 analytically  !
 ! D153  D(22,24,26,21)        -45.9578         calculate D2E/DX2 analytically  !
 ! D154  D(30,24,26,17)        -99.8012         calculate D2E/DX2 analytically  !
 ! D155  D(30,24,26,21)         80.2717         calculate D2E/DX2 analytically  !
 ! D156  D(84,24,26,17)         18.9123         calculate D2E/DX2 analytically  !
 ! D157  D(84,24,26,21)       -161.0149         calculate D2E/DX2 analytically  !
 ! D158  D(22,24,30,32)        -64.911          calculate D2E/DX2 analytically  !
 ! D159  D(22,24,30,34)        172.4215         calculate D2E/DX2 analytically  !
 ! D160  D(22,24,30,83)         54.9146         calculate D2E/DX2 analytically  !
 ! D161  D(26,24,30,32)        170.7746         calculate D2E/DX2 analytically  !
 ! D162  D(26,24,30,34)         48.1071         calculate D2E/DX2 analytically  !
 ! D163  D(26,24,30,83)        -69.3998         calculate D2E/DX2 analytically  !
 ! D164  D(84,24,30,32)         52.5153         calculate D2E/DX2 analytically  !
 ! D165  D(84,24,30,34)        -70.1521         calculate D2E/DX2 analytically  !
 ! D166  D(84,24,30,83)        172.341          calculate D2E/DX2 analytically  !
 ! D167  D(23,25,27,20)        -42.5352         calculate D2E/DX2 analytically  !
 ! D168  D(23,25,27,36)        137.076          calculate D2E/DX2 analytically  !
 ! D169  D(31,25,27,20)         83.7406         calculate D2E/DX2 analytically  !
 ! D170  D(31,25,27,36)        -96.6482         calculate D2E/DX2 analytically  !
 ! D171  D(57,25,27,20)       -157.4671         calculate D2E/DX2 analytically  !
 ! D172  D(57,25,27,36)         22.1441         calculate D2E/DX2 analytically  !
 ! D173  D(23,25,31,33)        -64.1424         calculate D2E/DX2 analytically  !
 ! D174  D(23,25,31,35)        173.3169         calculate D2E/DX2 analytically  !
 ! D175  D(23,25,31,58)         55.6194         calculate D2E/DX2 analytically  !
 ! D176  D(27,25,31,33)        171.664          calculate D2E/DX2 analytically  !
 ! D177  D(27,25,31,35)         49.1232         calculate D2E/DX2 analytically  !
 ! D178  D(27,25,31,58)        -68.5743         calculate D2E/DX2 analytically  !
 ! D179  D(57,25,31,33)         53.2164         calculate D2E/DX2 analytically  !
 ! D180  D(57,25,31,35)        -69.3243         calculate D2E/DX2 analytically  !
 ! D181  D(57,25,31,58)        172.9782         calculate D2E/DX2 analytically  !
 ! D182  D(20,27,36,37)         -3.6552         calculate D2E/DX2 analytically  !
 ! D183  D(25,27,36,37)        176.7261         calculate D2E/DX2 analytically  !
 ! D184  D(24,30,32,85)        -64.8704         calculate D2E/DX2 analytically  !
 ! D185  D(24,30,32,86)         56.2916         calculate D2E/DX2 analytically  !
 ! D186  D(24,30,32,87)        176.4351         calculate D2E/DX2 analytically  !
 ! D187  D(34,30,32,85)         58.1762         calculate D2E/DX2 analytically  !
 ! D188  D(34,30,32,86)        179.3383         calculate D2E/DX2 analytically  !
 ! D189  D(34,30,32,87)        -60.5182         calculate D2E/DX2 analytically  !
 ! D190  D(83,30,32,85)        175.9731         calculate D2E/DX2 analytically  !
 ! D191  D(83,30,32,86)        -62.8648         calculate D2E/DX2 analytically  !
 ! D192  D(83,30,32,87)         57.2787         calculate D2E/DX2 analytically  !
 ! D193  D(24,30,34,88)        176.7873         calculate D2E/DX2 analytically  !
 ! D194  D(24,30,34,89)        -64.2612         calculate D2E/DX2 analytically  !
 ! D195  D(24,30,34,90)         57.9558         calculate D2E/DX2 analytically  !
 ! D196  D(32,30,34,88)         54.0132         calculate D2E/DX2 analytically  !
 ! D197  D(32,30,34,89)        172.9647         calculate D2E/DX2 analytically  !
 ! D198  D(32,30,34,90)        -64.8184         calculate D2E/DX2 analytically  !
 ! D199  D(83,30,34,88)        -65.0859         calculate D2E/DX2 analytically  !
 ! D200  D(83,30,34,89)         53.8656         calculate D2E/DX2 analytically  !
 ! D201  D(83,30,34,90)        176.0825         calculate D2E/DX2 analytically  !
 ! D202  D(25,31,33,74)        177.0936         calculate D2E/DX2 analytically  !
 ! D203  D(25,31,33,75)        -64.2305         calculate D2E/DX2 analytically  !
 ! D204  D(25,31,33,76)         56.9802         calculate D2E/DX2 analytically  !
 ! D205  D(35,31,33,74)        -59.8647         calculate D2E/DX2 analytically  !
 ! D206  D(35,31,33,75)         58.8113         calculate D2E/DX2 analytically  !
 ! D207  D(35,31,33,76)       -179.978          calculate D2E/DX2 analytically  !
 ! D208  D(58,31,33,74)         57.9287         calculate D2E/DX2 analytically  !
 ! D209  D(58,31,33,75)        176.6047         calculate D2E/DX2 analytically  !
 ! D210  D(58,31,33,76)        -62.1846         calculate D2E/DX2 analytically  !
 ! D211  D(25,31,35,71)        -63.1874         calculate D2E/DX2 analytically  !
 ! D212  D(25,31,35,72)         58.9405         calculate D2E/DX2 analytically  !
 ! D213  D(25,31,35,73)        177.6968         calculate D2E/DX2 analytically  !
 ! D214  D(33,31,35,71)        174.1149         calculate D2E/DX2 analytically  !
 ! D215  D(33,31,35,72)        -63.7571         calculate D2E/DX2 analytically  !
 ! D216  D(33,31,35,73)         54.9992         calculate D2E/DX2 analytically  !
 ! D217  D(58,31,35,71)         55.109          calculate D2E/DX2 analytically  !
 ! D218  D(58,31,35,72)        177.2369         calculate D2E/DX2 analytically  !
 ! D219  D(58,31,35,73)        -64.0068         calculate D2E/DX2 analytically  !
 ! D220  D(27,36,37,38)         70.1649         calculate D2E/DX2 analytically  !
 ! D221  D(27,36,37,40)       -170.1462         calculate D2E/DX2 analytically  !
 ! D222  D(27,36,37,55)        -51.8961         calculate D2E/DX2 analytically  !
 ! D223  D(36,37,38,19)         45.8612         calculate D2E/DX2 analytically  !
 ! D224  D(36,37,38,22)       -141.3277         calculate D2E/DX2 analytically  !
 ! D225  D(40,37,38,19)        -70.843          calculate D2E/DX2 analytically  !
 ! D226  D(40,37,38,22)        101.968          calculate D2E/DX2 analytically  !
 ! D227  D(55,37,38,19)        165.8176         calculate D2E/DX2 analytically  !
 ! D228  D(55,37,38,22)        -21.3714         calculate D2E/DX2 analytically  !
 ! D229  D(36,37,40,42)       -175.8615         calculate D2E/DX2 analytically  !
 ! D230  D(36,37,40,44)         60.6463         calculate D2E/DX2 analytically  !
 ! D231  D(36,37,40,56)        -57.3569         calculate D2E/DX2 analytically  !
 ! D232  D(38,37,40,42)        -57.8029         calculate D2E/DX2 analytically  !
 ! D233  D(38,37,40,44)        178.7049         calculate D2E/DX2 analytically  !
 ! D234  D(38,37,40,56)         60.7017         calculate D2E/DX2 analytically  !
 ! D235  D(55,37,40,42)         66.7448         calculate D2E/DX2 analytically  !
 ! D236  D(55,37,40,44)        -56.7475         calculate D2E/DX2 analytically  !
 ! D237  D(55,37,40,56)       -174.7506         calculate D2E/DX2 analytically  !
 ! D238  D(37,40,42,80)        -58.9437         calculate D2E/DX2 analytically  !
 ! D239  D(37,40,42,81)         63.1894         calculate D2E/DX2 analytically  !
 ! D240  D(37,40,42,82)       -177.3947         calculate D2E/DX2 analytically  !
 ! D241  D(44,40,42,80)         64.1498         calculate D2E/DX2 analytically  !
 ! D242  D(44,40,42,81)       -173.7171         calculate D2E/DX2 analytically  !
 ! D243  D(44,40,42,82)        -54.3011         calculate D2E/DX2 analytically  !
 ! D244  D(56,40,42,80)       -176.1438         calculate D2E/DX2 analytically  !
 ! D245  D(56,40,42,81)        -54.0107         calculate D2E/DX2 analytically  !
 ! D246  D(56,40,42,82)         65.4053         calculate D2E/DX2 analytically  !
 ! D247  D(37,40,44,77)       -177.1549         calculate D2E/DX2 analytically  !
 ! D248  D(37,40,44,78)        -57.2024         calculate D2E/DX2 analytically  !
 ! D249  D(37,40,44,79)         64.1451         calculate D2E/DX2 analytically  !
 ! D250  D(42,40,44,77)         58.8515         calculate D2E/DX2 analytically  !
 ! D251  D(42,40,44,78)        178.804          calculate D2E/DX2 analytically  !
 ! D252  D(42,40,44,79)        -59.8485         calculate D2E/DX2 analytically  !
 ! D253  D(56,40,44,77)        -60.6818         calculate D2E/DX2 analytically  !
 ! D254  D(56,40,44,78)         59.2706         calculate D2E/DX2 analytically  !
 ! D255  D(56,40,44,79)       -179.3819         calculate D2E/DX2 analytically  !
 ! D256  D(16,41,43,68)         61.9345         calculate D2E/DX2 analytically  !
 ! D257  D(16,41,43,69)       -178.5574         calculate D2E/DX2 analytically  !
 ! D258  D(16,41,43,70)        -60.1378         calculate D2E/DX2 analytically  !
 ! D259  D(45,41,43,68)       -174.9822         calculate D2E/DX2 analytically  !
 ! D260  D(45,41,43,69)        -55.4742         calculate D2E/DX2 analytically  !
 ! D261  D(45,41,43,70)         62.9455         calculate D2E/DX2 analytically  !
 ! D262  D(59,41,43,68)        -55.3458         calculate D2E/DX2 analytically  !
 ! D263  D(59,41,43,69)         64.1622         calculate D2E/DX2 analytically  !
 ! D264  D(59,41,43,70)       -177.4181         calculate D2E/DX2 analytically  !
 ! D265  D(16,41,45,65)         62.7691         calculate D2E/DX2 analytically  !
 ! D266  D(16,41,45,66)       -178.5104         calculate D2E/DX2 analytically  !
 ! D267  D(16,41,45,67)        -58.6794         calculate D2E/DX2 analytically  !
 ! D268  D(43,41,45,65)        -60.7865         calculate D2E/DX2 analytically  !
 ! D269  D(43,41,45,66)         57.9341         calculate D2E/DX2 analytically  !
 ! D270  D(43,41,45,67)        177.765          calculate D2E/DX2 analytically  !
 ! D271  D(59,41,45,65)        179.7354         calculate D2E/DX2 analytically  !
 ! D272  D(59,41,45,66)        -61.544          calculate D2E/DX2 analytically  !
 ! D273  D(59,41,45,67)         58.287          calculate D2E/DX2 analytically  !
 --------------------------------------------------------------------------------
 Trust Radius=3.00D-01 FncErr=1.00D-07 GrdErr=1.00D-07
 Number of steps in this run=      2 maximum allowed number of steps=      2.
 GradGradGradGradGradGradGradGradGradGradGradGradGradGradGradGradGradGrad

 Symmetry turned off by external request.
 Stoichiometry    C33H57CaN3O9(2+)
 Framework group  C1[X(C33H57CaN3O9)]
 Deg. of freedom   303
 Full point group                 C1      NOp   1
                          Input orientation:                          
 ---------------------------------------------------------------------
 Center     Atomic      Atomic             Coordinates (Angstroms)
 Number     Number       Type             X           Y           Z
 ---------------------------------------------------------------------
      1          7           0       -2.679002   12.067979   12.963335
      2          6           0       -3.636577   13.154231   12.601588
      3          6           0       -3.008828   14.513007   12.940178
      4          8           0       -2.439148   14.791587   13.987331
      5          6           0       -2.719753   11.491835   14.325753
      6          6           0       -5.043058   12.972057   13.251660
      7          6           0       -5.726065   11.696440   12.723341
      8          6           0       -5.931284   14.203349   12.982582
      9          8           0       -3.170728   15.383051   11.901148
     10          6           0       -0.905235   10.492928   12.136381
     11          6           0       -1.680254   11.815660   12.093733
     12          8           0       -1.440926   12.616482   11.126870
     13          6           0       -1.358416    9.550257   10.986363
     14          6           0       -2.866506    9.245974   11.067660
     15          6           0       -0.538597    8.246721   11.012511
     16          6           0       -2.696942   16.743512   12.133346
     17          8           0        0.509456   10.774431   11.911228
     18          8           0       -0.604528   16.134549   11.097831
     19          8           0        2.036831   13.667722   11.175610
     20          8           0        1.752983   15.851198   13.950549
     21          8           0        0.651732   11.699766   13.999798
     22          7           0        3.145372   12.841048   12.989969
     23          7           0       -0.433400   17.465721   12.946346
     24          6           0        2.672042   11.475832   12.618229
     25          6           0        0.985702   17.743876   12.581653
     26          6           0        1.180411   11.346005   12.954016
     27          6           0        1.842451   16.518482   12.927466
     28          6           0        3.664753   13.076609   14.355061
     29          6           0       -0.896027   17.781627   14.316174
     30          6           0        3.529777   10.341073   13.260430
     31          6           0        1.531110   19.060136   13.220504
     32          6           0        4.969701   10.378172   12.713425
     33          6           0        0.763336   20.280457   12.677408
     34          6           0        2.895877    8.959007   13.005014
     35          6           0        3.041444   19.220264   12.954137
     36          8           0        2.727358   16.260225   11.923422
     37          6           0        3.652237   15.159253   12.167708
     38          6           0        2.866701   13.842569   12.131297
     39          6           0       -1.163715   16.740756   12.075052
     40          6           0        4.708661   15.212594   11.028516
     41          6           0       -3.291476   17.629281   11.003031
     42          6           0        5.694195   14.031884   11.111633
     43          6           0       -2.820113   19.090509   11.133921
     44          6           0        5.460817   16.556400   11.066943
     45          6           0       -4.829736   17.550653   11.012834
     46          1           0        4.719421   12.774998   14.452373
     47          1           0        3.536667   14.134208   14.615325
     48          1           0        3.043021   12.495411   15.052245
     49          1           0       -1.725244   11.110378   14.588426
     50          1           0       -2.946907   12.308656   15.026319
     51          1           0       -3.480158   10.699917   14.414409
     52          1           0       -0.074811   17.541974   15.007652
     53          1           0       -1.176002   18.841584   14.419699
     54          1           0       -1.737307   17.127845   14.576967
     55          1           0        4.141619   15.321041   13.140248
     56          1           0        4.148314   15.140674   10.075953
     57          1           0        1.007908   17.862804   11.485981
     58          1           0        1.393741   18.998662   14.315576
     59          1           0       -2.916367   17.219745   10.044964
     60          1           0       -4.913724   12.891631   14.346406
     61          1           0       -1.154644   10.085819   10.038602
     62          1           0       -1.011880    9.979133   13.103685
     63          1           0       -3.757000   13.112140   11.506987
     64          1           0       -3.073491   17.082254   13.110059
     65          1           0       -5.243713   17.947172   11.958204
     66          1           0       -5.234537   18.162834   10.188925
     67          1           0       -5.191436   16.518923   10.880752
     68          1           0       -1.725754   19.197506   11.042380
     69          1           0       -3.278484   19.697013   10.334951
     70          1           0       -3.132942   19.528966   12.099579
     71          1           0        3.642114   18.418812   13.417575
     72          1           0        3.262461   19.239573   11.871865
     73          1           0        3.384712   20.177202   13.381770
     74          1           0        1.120875   21.198733   13.173386
     75          1           0        0.934738   20.398814   11.591612
     76          1           0       -0.325069   20.213946   12.844324
     77          1           0        6.172107   16.606237   10.224851
     78          1           0        4.776157   17.415420   10.987404
     79          1           0        6.042332   16.659447   12.001549
     80          1           0        6.230550   14.020347   12.078151
     81          1           0        5.201955   13.053861   10.975986
     82          1           0        6.452809   14.131563   10.317383
     83          1           0        3.548286   10.496789   14.354525
     84          1           0        2.769144   11.399396   11.522754
     85          1           0        4.983009   10.153052   11.630957
     86          1           0        5.462374   11.353926   12.862895
     87          1           0        5.582719    9.613895   13.220554
     88          1           0        3.552864    8.176186   13.419533
     89          1           0        1.910667    8.850671   13.490678
     90          1           0        2.778417    8.759049   11.924928
     91          1           0        0.542918    8.437022   10.928420
     92          1           0       -0.721606    7.681462   11.944874
     93          1           0       -0.839517    7.604065   10.167569
     94          1           0       -3.127353    8.759370   12.025592
     95          1           0       -3.492596   10.147220   10.951667
     96          1           0       -3.143424    8.547705   10.260196
     97          1           0       -6.056119   14.382764   11.899645
     98          1           0       -6.932788   14.029305   13.410213
     99          1           0       -5.530758   15.121884   13.445595
    100          1           0       -5.125679   10.786371   12.890540
    101          1           0       -6.694997   11.554320   13.231346
    102          1           0       -5.926063   11.778359   11.639058
    103         20           0        0.017974   14.118355   10.379948
 ---------------------------------------------------------------------
 Rotational constants (GHZ):      0.0714857      0.0708137      0.0407430
 General basis read from cards:  (5D, 7F)
   780 basis functions,  1565 primitive gaussians,   828 cartesian basis functions
   183 alpha electrons      183 beta electrons
       nuclear repulsion energy      7419.0106357545 Hartrees.
 NAtoms=  103 NActive=  103 NUniq=  103 SFac= 1.00D+00 NAtFMM=   60 NAOKFM=T Big=T
 Integral buffers will be    131072 words long.
 Raffenetti 2 integral format.
 Two-electron integral symmetry is turned off.
 Force inversion solution in PCM.
 ------------------------------------------------------------------------------
 Polarizable Continuum Model (PCM)
 =================================
 Model                : PCM (using non-symmetric T matrix).
 Atomic radii         : UFF (Universal Force Field).
 Polarization charges : Total charges.
 Charge compensation  : None.
 Solution method      : Matrix inversion.
 Cavity type          : Scaled VdW (van der Waals Surface) (Alpha=1.100).
 Cavity algorithm     : GePol (No added spheres)
                        Default sphere list used, NSphG=  103.
                        Lebedev-Laikov grids with approx.  5.0 points / Ang**2.
                        Smoothing algorithm: Karplus/York (Gamma=1.0000).
                        Polarization charges: spherical gaussians, with
                                              point-specific exponents (IZeta= 3).
                        Self-potential: point-specific (ISelfS= 7).
                        Self-field    : sphere-specific E.n sum rule (ISelfD= 2).
 1st derivatives      : Analytical E(r).r(x)/FMM algorithm (CHGder, D1EAlg=3).
                        Cavity 1st derivative terms included.
 2nd derivatives      : Analytical E(r).r(xy)/FMM algorithm (CHGder, D2EAlg=3).
                        Cavity 2nd derivative terms included.
 Solvent              : n-Pentadecane, Eps=   2.033300 Eps(inf)=   2.049192
 ------------------------------------------------------------------------------
 One-electron integrals computed using PRISM.
 NBasis=   780 RedAO= T EigKep=  2.09D-03  NBF=   780
 NBsUse=   780 1.00D-06 EigRej= -1.00D+00 NBFU=   780
 Initial guess from the checkpoint file:  "nP_EB11Ca_out.chk"
 B after Tr=     0.000000    0.000000    0.000000
         Rot=    1.000000    0.000000    0.000000    0.000000 Ang=   0.00 deg.
 Requested convergence on RMS density matrix=1.00D-08 within 128 cycles.
 Requested convergence on MAX density matrix=1.00D-06.
 Requested convergence on             energy=1.00D-06.
 No special actions if energy rises.
 Inv3:  Mode=1 IEnd=   102176688.
 Iteration    1 A*A^-1 deviation from unit magnitude is 4.44D-15 for   1540.
 Iteration    1 A*A^-1 deviation from orthogonality  is 3.30D-15 for   5162    371.
 Iteration    1 A^-1*A deviation from unit magnitude is 4.44D-15 for   2880.
 Iteration    1 A^-1*A deviation from orthogonality  is 7.63D-15 for   5786   5780.
 Error on total polarization charges =  0.00739
 SCF Done:  E(RB-P86) =  -2810.60430077     A.U. after    1 cycles
            NFock=  1  Conv=0.25D-08     -V/T= 2.0064
 QCSCF skips out because SCF is already converged.
 Range of M.O.s used for correlation:     1   780
 NBasis=   780 NAE=   183 NBE=   183 NFC=     0 NFV=     0
 NROrb=    780 NOA=   183 NOB=   183 NVA=   597 NVB=   597
 Symmetrizing basis deriv contribution to polar:
 IMax=3 JMax=2 DiffMx= 0.00D+00
 G2DrvN: will do   104 centers at a time, making    1 passes.
 Calling FoFCou, ICntrl=  3507 FMM=T I1Cent=   0 AccDes= 0.00D+00.
 NEqPCM:  Using equilibrium solvation (IEInf=0, Eps=   2.0333, EpsInf=   2.0492)
 G2PCM: DoFxE=T DoFxN=T DoGrad=T DoDP/DQ/DG/TGxP=FFFF NFrqRd=   0 IEInf=0 SqF1=F DoCFld=F IF1Alg=4.
 End of G2Drv F.D. properties file   721 does not exist.
 End of G2Drv F.D. properties file   722 does not exist.
 End of G2Drv F.D. properties file   788 does not exist.
          IDoAtm=11111111111111111111111111111111111111111111111111
          IDoAtm=11111111111111111111111111111111111111111111111111
          IDoAtm=111
 NEqPCM:  Using equilibrium solvation (IEInf=0, Eps=   2.0333, EpsInf=   2.0492)
          Differentiating once with respect to electric field.
                with respect to dipole field.
          Differentiating once with respect to nuclear coordinates.
 CalDSu exits because no D1Ps are significant.
          There are   312 degrees of freedom in the 1st order CPHF.  IDoFFX=6 NUNeed=     3.
    310 vectors produced by pass  0 Test12= 1.09D-13 1.00D-09 XBig12= 4.93D+02 4.56D+00.
 AX will form    72 AO Fock derivatives at one time.
    309 vectors produced by pass  1 Test12= 1.09D-13 1.00D-09 XBig12= 3.22D+02 2.54D+00.
    309 vectors produced by pass  2 Test12= 1.09D-13 1.00D-09 XBig12= 8.77D-01 4.68D-02.
    309 vectors produced by pass  3 Test12= 1.09D-13 1.00D-09 XBig12= 1.01D-03 1.52D-03.
    192 vectors produced by pass  4 Test12= 1.09D-13 1.00D-09 XBig12= 1.83D-07 3.09D-05.
     14 vectors produced by pass  5 Test12= 1.09D-13 1.00D-09 XBig12= 1.81D-11 6.20D-07.
      1 vectors produced by pass  6 Test12= 1.09D-13 1.00D-09 XBig12= 5.53D-15 4.09D-09.
 InvSVY:  IOpt=1 It=  1 EMax= 1.78D-14
 Solved reduced A of dimension  1444 with   312 vectors.
 Isotropic polarizability for W=    0.000000      478.36 Bohr**3.
 End of Minotr F.D. properties file   721 does not exist.
 End of Minotr F.D. properties file   722 does not exist.
 End of Minotr F.D. properties file   788 does not exist.

 **********************************************************************

            Population analysis using the SCF density.

 **********************************************************************

 Alpha  occ. eigenvalues -- -144.49938 -18.95463 -18.95456 -18.95386 -18.91773
 Alpha  occ. eigenvalues --  -18.91704 -18.91697 -18.90231 -18.90202 -18.90145
 Alpha  occ. eigenvalues --  -15.16216 -14.19278 -14.19262 -14.19244 -12.36308
 Alpha  occ. eigenvalues --  -12.36204 -12.36201 -10.14916 -10.14913 -10.14854
 Alpha  occ. eigenvalues --  -10.14781 -10.14726 -10.14720 -10.09167 -10.09161
 Alpha  occ. eigenvalues --  -10.09085 -10.07327 -10.07315 -10.07263 -10.04187
 Alpha  occ. eigenvalues --  -10.04143 -10.04109 -10.02454 -10.02448 -10.02440
 Alpha  occ. eigenvalues --  -10.02426 -10.02373 -10.02371  -9.98933  -9.98932
 Alpha  occ. eigenvalues --   -9.98864  -9.98661  -9.98632  -9.98606  -9.98551
 Alpha  occ. eigenvalues --   -9.98543  -9.98512  -9.98281  -9.98259  -9.98220
 Alpha  occ. eigenvalues --   -1.77608  -1.12908  -1.12748  -1.12681  -1.10745
 Alpha  occ. eigenvalues --   -1.10684  -1.10190  -1.07769  -1.07317  -1.07301
 Alpha  occ. eigenvalues --   -1.04412  -1.04270  -1.04221  -0.98354  -0.98310
 Alpha  occ. eigenvalues --   -0.98299  -0.86085  -0.85099  -0.85067  -0.83387
 Alpha  occ. eigenvalues --   -0.83385  -0.82795  -0.78091  -0.77682  -0.77657
 Alpha  occ. eigenvalues --   -0.76286  -0.76263  -0.76252  -0.74435  -0.74432
 Alpha  occ. eigenvalues --   -0.71929  -0.70778  -0.70743  -0.70662  -0.70649
 Alpha  occ. eigenvalues --   -0.70495  -0.70484  -0.67223  -0.65093  -0.65057
 Alpha  occ. eigenvalues --   -0.62851  -0.62832  -0.62216  -0.60610  -0.60555
 Alpha  occ. eigenvalues --   -0.60533  -0.59733  -0.59681  -0.59669  -0.58704
 Alpha  occ. eigenvalues --   -0.58666  -0.58649  -0.57473  -0.57456  -0.57073
 Alpha  occ. eigenvalues --   -0.56200  -0.56158  -0.56042  -0.53838  -0.53300
 Alpha  occ. eigenvalues --   -0.53268  -0.52688  -0.52437  -0.51900  -0.51837
 Alpha  occ. eigenvalues --   -0.51339  -0.51305  -0.50120  -0.50056  -0.50004
 Alpha  occ. eigenvalues --   -0.48956  -0.48943  -0.48666  -0.47997  -0.47955
 Alpha  occ. eigenvalues --   -0.47837  -0.47290  -0.46924  -0.46905  -0.46421
 Alpha  occ. eigenvalues --   -0.46380  -0.46197  -0.45669  -0.45634  -0.45302
 Alpha  occ. eigenvalues --   -0.44850  -0.44781  -0.44682  -0.44464  -0.44448
 Alpha  occ. eigenvalues --   -0.44384  -0.43896  -0.43885  -0.43821  -0.43194
 Alpha  occ. eigenvalues --   -0.43136  -0.42847  -0.42419  -0.42396  -0.42358
 Alpha  occ. eigenvalues --   -0.42257  -0.42255  -0.42208  -0.40254  -0.40196
 Alpha  occ. eigenvalues --   -0.40174  -0.39639  -0.39589  -0.39546  -0.39474
 Alpha  occ. eigenvalues --   -0.39391  -0.39370  -0.38947  -0.38907  -0.38889
 Alpha  occ. eigenvalues --   -0.38601  -0.38573  -0.38562  -0.38492  -0.38442
 Alpha  occ. eigenvalues --   -0.38389  -0.38088  -0.38048  -0.38033  -0.36637
 Alpha  occ. eigenvalues --   -0.36583  -0.35875  -0.35741  -0.35700  -0.35553
 Alpha  occ. eigenvalues --   -0.33726  -0.33644  -0.33047
 Alpha virt. eigenvalues --   -0.17486  -0.17453  -0.17412  -0.15191  -0.15057
 Alpha virt. eigenvalues --   -0.15006  -0.13756  -0.10491  -0.10387  -0.09842
 Alpha virt. eigenvalues --   -0.09053  -0.08986  -0.07242  -0.06416  -0.06394
 Alpha virt. eigenvalues --   -0.05376  -0.04363  -0.04319  -0.03252  -0.03217
 Alpha virt. eigenvalues --   -0.03085  -0.02813  -0.01916  -0.01870  -0.01377
 Alpha virt. eigenvalues --   -0.01365  -0.00705  -0.00567  -0.00557   0.00078
 Alpha virt. eigenvalues --    0.00223   0.00272   0.00309   0.00618   0.00668
 Alpha virt. eigenvalues --    0.00898   0.01079   0.01223   0.01254   0.02035
 Alpha virt. eigenvalues --    0.02072   0.02177   0.02577   0.02734   0.02764
 Alpha virt. eigenvalues --    0.03004   0.03189   0.03580   0.03612   0.04073
 Alpha virt. eigenvalues --    0.04547   0.04611   0.04615   0.04697   0.04720
 Alpha virt. eigenvalues --    0.05203   0.05292   0.05563   0.05727   0.05868
 Alpha virt. eigenvalues --    0.05894   0.05963   0.06252   0.06314   0.06362
 Alpha virt. eigenvalues --    0.06569   0.06645   0.07299   0.07371   0.07592
 Alpha virt. eigenvalues --    0.07864   0.07994   0.08459   0.08555   0.08647
 Alpha virt. eigenvalues --    0.08720   0.09032   0.09040   0.09396   0.09753
 Alpha virt. eigenvalues --    0.10068   0.10091   0.10286   0.10342   0.10551
 Alpha virt. eigenvalues --    0.10811   0.10872   0.11042   0.11306   0.11352
 Alpha virt. eigenvalues --    0.11643   0.11863   0.12039   0.12103   0.12282
 Alpha virt. eigenvalues --    0.12343   0.12740   0.12798   0.12855   0.13481
 Alpha virt. eigenvalues --    0.13576   0.13599   0.13828   0.13891   0.13980
 Alpha virt. eigenvalues --    0.14203   0.14384   0.14454   0.14853   0.15975
 Alpha virt. eigenvalues --    0.16177   0.16209   0.17915   0.18028   0.19230
 Alpha virt. eigenvalues --    0.19556   0.19603   0.22816   0.23366   0.23454
 Alpha virt. eigenvalues --    0.24697   0.25429   0.25505   0.27816   0.27937
 Alpha virt. eigenvalues --    0.28800   0.33453   0.33599   0.33782   0.33877
 Alpha virt. eigenvalues --    0.34178   0.34801   0.35575   0.35606   0.35688
 Alpha virt. eigenvalues --    0.37137   0.37181   0.37932   0.38334   0.38423
 Alpha virt. eigenvalues --    0.38648   0.38923   0.38981   0.39144   0.39770
 Alpha virt. eigenvalues --    0.39846   0.40923   0.41643   0.41688   0.41809
 Alpha virt. eigenvalues --    0.42136   0.42565   0.42585   0.43304   0.43690
 Alpha virt. eigenvalues --    0.43701   0.44862   0.44883   0.45053   0.45592
 Alpha virt. eigenvalues --    0.45716   0.45738   0.46600   0.46673   0.47058
 Alpha virt. eigenvalues --    0.47505   0.47591   0.48341   0.49053   0.49215
 Alpha virt. eigenvalues --    0.49293   0.49601   0.50891   0.50938   0.51164
 Alpha virt. eigenvalues --    0.51269   0.51491   0.51988   0.52565   0.52606
 Alpha virt. eigenvalues --    0.53227   0.53475   0.53652   0.55188   0.55222
 Alpha virt. eigenvalues --    0.55549   0.55623   0.55696   0.55741   0.56968
 Alpha virt. eigenvalues --    0.57153   0.57488   0.58763   0.58838   0.59033
 Alpha virt. eigenvalues --    0.59070   0.59371   0.59872   0.62774   0.62864
 Alpha virt. eigenvalues --    0.63509   0.63734   0.63987   0.64041   0.64393
 Alpha virt. eigenvalues --    0.64567   0.64634   0.65893   0.66103   0.66174
 Alpha virt. eigenvalues --    0.66771   0.66866   0.67292   0.67384   0.67598
 Alpha virt. eigenvalues --    0.68037   0.68426   0.68460   0.68634   0.69420
 Alpha virt. eigenvalues --    0.69528   0.70946   0.72114   0.72353   0.72412
 Alpha virt. eigenvalues --    0.72441   0.73669   0.73752   0.73765   0.73827
 Alpha virt. eigenvalues --    0.74020   0.74235   0.74353   0.75001   0.75170
 Alpha virt. eigenvalues --    0.75384   0.75407   0.75609   0.75845   0.75883
 Alpha virt. eigenvalues --    0.76338   0.76433   0.76560   0.76839   0.76968
 Alpha virt. eigenvalues --    0.77241   0.77250   0.77507   0.77895   0.78510
 Alpha virt. eigenvalues --    0.78639   0.78756   0.78880   0.79378   0.79533
 Alpha virt. eigenvalues --    0.80048   0.80077   0.80360   0.81005   0.81219
 Alpha virt. eigenvalues --    0.81555   0.81617   0.81678   0.82211   0.82741
 Alpha virt. eigenvalues --    0.82776   0.82830   0.83071   0.83120   0.83394
 Alpha virt. eigenvalues --    0.84191   0.84330   0.84577   0.86049   0.86207
 Alpha virt. eigenvalues --    0.86517   0.87022   0.87211   0.87359   0.87744
 Alpha virt. eigenvalues --    0.88486   0.88689   0.88762   0.88973   0.89103
 Alpha virt. eigenvalues --    0.89869   0.89946   0.90205   0.90970   0.91247
 Alpha virt. eigenvalues --    0.91397   0.92048   0.92275   0.92465   0.93645
 Alpha virt. eigenvalues --    0.93885   0.94219   0.95154   0.95285   0.95491
 Alpha virt. eigenvalues --    0.95939   0.95980   0.96419   0.97529   0.97663
 Alpha virt. eigenvalues --    0.97984   0.99110   0.99289   0.99385   1.01782
 Alpha virt. eigenvalues --    1.02143   1.02949   1.03824   1.04209   1.04646
 Alpha virt. eigenvalues --    1.05342   1.05446   1.06070   1.08294   1.08571
 Alpha virt. eigenvalues --    1.08914   1.09023   1.10406   1.10549   1.11418
 Alpha virt. eigenvalues --    1.11520   1.11654   1.13778   1.13915   1.14051
 Alpha virt. eigenvalues --    1.14255   1.15971   1.16312   1.16567   1.18132
 Alpha virt. eigenvalues --    1.18449   1.20992   1.22639   1.22992   1.23183
 Alpha virt. eigenvalues --    1.23813   1.24032   1.25261   1.25350   1.25756
 Alpha virt. eigenvalues --    1.27819   1.29071   1.29132   1.29240   1.29619
 Alpha virt. eigenvalues --    1.30803   1.31072   1.31992   1.32166   1.32325
 Alpha virt. eigenvalues --    1.34033   1.34125   1.34144   1.34775   1.34928
 Alpha virt. eigenvalues --    1.35025   1.35599   1.35775   1.37608   1.38134
 Alpha virt. eigenvalues --    1.38627   1.39832   1.39924   1.40766   1.42712
 Alpha virt. eigenvalues --    1.43331   1.43628   1.44643   1.44839   1.45124
[...]
 .00000035,-0.00000019,0.00000001,0.00000005,-0.00000021,-0.00000021,-0
 .00000001,-0.00000038,-0.00000032,0.00000061,0.00000063,0.00000009,-0.
 00000014,-0.00000057,-0.00000120,-0.00000085,0.00000230,0.00000123,-0.
 00000095,0.00000018,0.00000020,-0.00000086,-0.00000039,-0.00000020,-0.
 00000008,0.00000054,-0.00000001,0.00000006,-0.00000033,-0.00000044,-0.
 00000026,0.00000091,0.00000038,0.00000158,0.00000226,0.00000041,-0.000
 00240,-0.00001589,0.00001629,-0.00000008,0.00000253,0.00000374,-0.0000
 0173,0.00001071,-0.00000977,-0.00000371,-0.00002273,0.00007293,-0.0000
 3213,0.00000429,0.00010702,-0.00015589,0.00001325,-0.00000324,-0.00003
 031,-0.00004192,0.00012122,0.00088318,0.00012809,-0.00008822,0.0000043
 5,-0.00002254,0.00027263,0.00032630,0.00306081,-0.00159471,0.02545364,
 0.00116353,-0.00125257,0.00324503,-0.00156348,0.05135120,-0.00014581,0
 .00011269,0.00003694,0.00062067,0.00031727,0.00065824,0.00001758,0.000
 22609,0.00015872,0.00008560,0.00004267,0.00010206,0.00007170,0.0000720
 4,-0.00013234,-0.00158910,0.00022839,-0.01191592,-0.04272124,0.0216635
 1,-0.28580320,0.00003345,0.00082932,0.00072552,-0.00000509,-0.00020060
 ,0.00011127,0.00001031,-0.00001780,-0.00002260,0.00013386,-0.00002126,
 -0.00028878,-0.00010822,-0.00007474,0.00025297,-0.00006196,-0.00009606
 ,-0.00000561,-0.00002250,0.00019642,-0.00003042,0.00005703,0.00003357,
 0.00001529,0.00004016,0.00005660,-0.00000222,0.00000055,0.00003807,0.0
 0004840,-0.00001495,-0.00000169,0.00002244,-0.00001216,-0.00000099,0.0
 0001098,-0.00000887,-0.00001014,0.00001480,-0.00004902,0.00001540,0.00
 004760,-0.00000508,-0.00000204,0.00000454,-0.00001249,-0.00000716,0.00
 000495,0.00000198,0.00000333,0.00000303,0.00000809,0.00000431,-0.00000
 572,0.00003486,-0.00002630,-0.00007072,0.00001230,0.00000482,-0.000025
 93,0.00000149,0.00000066,-0.00000101,0.00000460,0.00000297,-0.00000235
 ,0.00000197,-0.00000657,0.00000303,0.00000026,0.00000474,0.00000106,-0
 .00000003,0.00000219,-0.00000294,-0.00000015,-0.00000040,-0.00000175,0
 .00000223,0.00000040,-0.00000441,0.00000096,-0.00000192,-0.00000155,-0
 .00001470,0.00000461,0.00001412,0.00000590,-0.00000288,-0.00000028,0.0
 0000475,0.00000800,-0.00000559,0.00002510,-0.00000155,-0.00001156,0.00
 000258,-0.00000098,-0.00000523,-0.00001447,0.00000205,-0.00002231,-0.0
 0000062,-0.00000088,0.00000155,0.00001197,-0.00000260,0.00001031,-0.00
 000101,0.00000124,0.00000231,-0.00000366,-0.00001884,0.00000843,-0.000
 00126,0.00000014,0.00000075,0.00000209,0.00000091,-0.00000102,0.000002
 35,-0.00000191,0.00000028,-0.00003245,-0.00002000,0.00004866,0.0000717
 7,0.00003373,0.00007666,0.00001961,-0.00014232,0.00002687,0.00000229,0
 .00000178,-0.00000077,0.00000007,-0.00000130,0.00000021,-0.00000029,0.
 00000852,-0.00000028,0.00000007,0.00000081,-0.00000035,0.00000023,-0.0
 0000018,0.00000067,-0.00000125,0.00000056,0.00000065,0.00000091,-0.000
 00021,0.00000150,-0.00000170,-0.00000132,0.00000522,-0.00122536,-0.002
 05177,0.00079768,0.00000005,0.00000831,0.00000561,0.00000803,-0.000018
 04,-0.00000121,-0.00086346,-0.00007955,0.00040198,-0.00000553,-0.00000
 716,-0.00000008,-0.00000084,0.00000742,0.00000237,0.00000200,-0.000008
 35,0.00000343,-0.00000569,0.00000404,-0.00000986,0.00000111,0.00000293
 ,-0.00000154,-0.00000107,-0.00000694,0.00000160,-0.00000170,0.00000287
 ,0.00000026,0.00000084,-0.00000008,0.00000012,-0.00000017,0.00000049,0
 .00000126,-0.00000099,-0.00000068,-0.00000041,-0.00000002,-0.00000103,
 -0.00000026,-0.00000076,0.00000018,0.00000177,-0.00000100,0.00000136,-
 0.00000079,-0.00000145,-0.00000061,0.00000048,0.00000061,0.00000038,-0
 .00000111,0.00000057,-0.00000007,-0.00000008,0.00000077,0.00000032,-0.
 00000004,0.00000061,-0.00000006,-0.00000144,-0.00000145,-0.00000010,0.
 00000057,0.00000067,0.00000159,0.00000134,-0.00000329,-0.00000185,0.00
 000150,0.00000004,-0.00000011,0.00000164,0.00000044,-0.00000026,-0.000
 00017,-0.00000142,0.00000028,0.,-0.00000040,0.00000086,-0.00000022,-0.
 00000190,-0.00000147,-0.00000059,-0.00000193,-0.00000072,0.00000291,0.
 00001693,-0.00001696,-0.00000175,-0.00000429,-0.00000300,0.00000067,-0
 .00001083,0.00001245,0.00000388,0.00003009,-0.00006324,0.00001810,0.00
 015357,-0.00026832,-0.00002198,0.00000805,-0.00001399,0.00001622,0.000
 45080,-0.00058215,0.00037350,0.00000361,-0.00007111,-0.00015521,0.0000
 7772,-0.00004370,0.00036001,0.00017308,0.00023579,-0.00353670,-0.00346
 066,0.00142817,-0.01330785,0.04817120,-0.02174308,0.31106453,0.0050267
 0,0.00137896,-0.00478413,-0.00087402,0.00070382,0.00016664,-0.00098150
 ,-0.00133133,0.00521500,-0.00096569,-0.00049433,-0.00180085,0.00034637
 ,-0.00098304,0.00129010,-0.00087487,-0.00014759,0.00030877,0.00021633,
 -0.00012723,-0.00024991,0.00025760,0.00024005,-0.00017583,-0.00006214,
 0.00094264,-0.00232566,0.00427252,0.00171837,-0.00100580,-0.00752716,-
 0.01247387,0.01502266,-0.02507950,-0.01954370,0.00721834,-0.00112237,-
 0.00009330,-0.00082503,0.00013300,-0.00025366,-0.00001746,0.00059673,0
 .00011357,0.00037747,0.00049943,0.00227602,0.00069366,-0.00487157,-0.0
 0186815,-0.00153238,-0.00664234,0.00626522,0.00197935,-0.04022095,0.01
 209154,-0.01129440,-0.00173258,0.00107700,0.00201847,-0.00269411,-0.00
 021047,-0.00006931,0.00488898,-0.00725858,0.00789893,-0.00247918,-0.00
 276250,-0.00324953,0.00108108,0.00313100,0.00053406,0.00231453,0.00028
 655,-0.00077506,0.00394601,0.00198990,-0.00013933,0.00590072,-0.005671
 71,-0.00573778,-0.00107395,-0.00139647,-0.00143982,-0.00064507,-0.0000
 2779,0.00019675,-0.00084469,0.00024571,-0.00016839,-0.00056771,0.00001
 065,-0.00012434,0.00000876,-0.00001655,0.00015270,0.00022655,0.0001104
 7,0.00010863,0.00059286,-0.00003555,0.00021219,0.00019910,-0.00018499,
 -0.00004342,-0.00170730,0.00280717,0.00482209,0.00185024,-0.00124561,0
 .00025156,-0.02187817,0.00272381,-0.02382035,-0.00199101,0.00750199,0.
 00872434,-0.00105343,0.00082695,0.00066653,-0.00032102,0.00028029,0.00
 015911,-0.00006135,0.00008459,-0.00004453,0.00033909,0.00009018,0.0000
 5419,0.00043842,-0.00058339,-0.00044419,-0.00007536,-0.00006353,0.0000
 8618,0.00043031,0.00017652,0.00066150,0.00008532,0.00000989,0.00010855
 ,0.00035980,0.00023026,0.00081362,0.00020394,0.00018420,-0.00027053,-0
 .00004369,0.00015536,-0.00036404,0.00005392,0.00031328,-0.00052155,0.0
 0022527,-0.00014348,-0.00043787,0.00012373,-0.00006482,-0.00019611,-0.
 00004123,0.00018767,0.00014929,0.00051953,0.00102184,0.00017419,-0.000
 18416,-0.00016094,0.00046194,0.00007330,-0.00014111,-0.00000487,0.0000
 7312,0.00003336,0.00004830,0.00003378,0.00022321,-0.00027752,0.0001842
 7,0.00009243,-0.00015915,0.00029462,-0.00022182,-0.00022810,-0.0009736
 1,0.00075741,-0.00002931,-0.00077903,-0.00020653,0.00002070,0.00001120
 ,-0.00036036,-0.00017741,0.00003649,-0.00003214,-0.00010605,0.00008416
 ,-0.00006596,0.00007053,-0.00023076,-0.00001356,-0.00003969,-0.0000998
 0,0.00004075,-0.00002206,0.00000960,-0.00014126,0.00004059,-0.00003118
 ,-0.00009050,-0.00009108,-0.00019131,0.00006631,-0.00017761,-0.0000224
 2,-0.00011733,0.00011172,-0.00013937,0.00009160,0.00004690,-0.00009154
 ,0.00005385,-0.00005416,0.00003126,-0.00001126,0.00000629,-0.00016845,
 0.00012044,0.00004768,0.00020059,0.00029157,-0.00005443,-0.00012294,0.
 00001384,-0.00001011,0.00008521,0.00008381,0.00012510,0.00002901,-0.00
 003643,0.00017576,-0.00022636,0.00024852,0.00010465,0.00019407,0.00002
 530,-0.00011055,0.00020888,-0.00005441,0.00009488,-0.00059315,0.000416
 69,0.00007783,-0.00003207,0.00007199,-0.00003926,-0.00035007,0.0000055
 7,-0.00005141,0.00007437,-0.00015910,0.00004425,-0.00008729,-0.0002558
 6,-0.00001388,-0.00015248,-0.00003499,0.00010730,0.00002441,0.00002323
 ,-0.00009330,-0.00020501,0.00008641,0.00001930,-0.00004229,0.00006659,
 -0.00001810,-0.00016161,0.00021282,-0.00001586,-0.00002442,-0.00003552
 ,-0.00005563,-0.00033904,0.00003292,-0.00010078,-0.00006141,0.00010716
 ,0.00006679,-0.00011891,-0.00002730,-0.00000812,0.00019468,-0.00004282
 ,-0.00003110,-0.00006342,0.00004120,0.00010476,-0.00015229,-0.00007091
 ,0.00003092,0.00017851,0.00009316,0.00000939,-0.00007991,-0.00003402,0
 .00003219,0.09499789,0.00694459,-0.00007576,-0.00625634,-0.00205808,0.
 00240559,-0.00074577,0.00086661,0.00626522,-0.00354833,-0.00051132,-0.
 00252545,0.00134403,0.00057120,-0.00114841,0.00092385,-0.00021662,-0.0
 0063045,0.00005661,-0.00012526,0.00008347,-0.00002818,0.00021466,0.000
 43727,-0.00016855,-0.00107216,-0.00508012,0.00308053,-0.00032978,0.000
 01719,0.00019826,-0.01060692,-0.01304181,0.01832401,-0.02268755,-0.024
 52207,0.00816698,-0.00074507,-0.00056089,-0.00026795,-0.00020733,0.000
 17019,0.00005194,0.00045329,0.00004354,0.00030133,0.00046000,0.0038226
 0,0.00079633,-0.00099119,-0.00383237,-0.00233875,0.00236550,-0.0409879
 4,-0.00366507,0.00762660,-0.00754918,0.00662149,0.00082018,-0.00193425
 ,0.00093028,-0.00053407,-0.00085594,-0.00221818,-0.00126781,-0.0001086
 0,-0.00061202,0.00295162,0.00713250,0.00728439,0.00047150,0.00067544,0
 .00053514,-0.00241743,-0.00057775,0.00025177,0.00558147,0.00216134,0.0
 0605406,-0.00168794,0.00131487,-0.00303345,0.00018090,0.00008903,0.000
 59614,0.00151999,-0.00016570,-0.00159055,0.00013055,-0.00067724,0.0002
 4429,-0.00006638,-0.00097264,-0.00027924,0.00000699,0.00030008,-0.0002
 0997,0.00014083,0.00010280,0.00024266,-0.00004477,0.00010048,-0.000063
 83,-0.00019089,0.00050487,0.00022440,0.00061295,-0.00234036,0.00194665
 ,-0.00298728,0.00247914,-0.00101805,0.00356051,0.00096276,0.00298342,0
 .00886798,-0.01846990,-0.02203937,0.00006514,-0.00057375,-0.00057468,-
 0.00034955,-0.00135507,0.00074743,0.00016418,0.00033947,-0.00002505,0.
 00007987,-0.00008834,0.00001339,-0.00017882,0.00016902,0.00016179,0.00
 026145,0.00071239,-0.00041889,-0.00009858,-0.00001226,-0.00015781,-0.0
 0022576,0.00004505,-0.00023297,0.00008566,0.00001532,0.00007072,-0.000
 03290,-0.00002285,0.00001150,-0.00001257,0.00037849,-0.00068328,0.0000
 0701,0.00032358,-0.00050397,-0.00028878,0.00013161,0.00066465,-0.00035
 237,0.00028362,0.00070086,-0.00004680,0.00020848,0.00021342,0.00007936
 ,-0.00076139,0.00007941,-0.00004909,0.00028595,0.00010861,0.00003505,-
 0.00091203,0.00001863,-0.00001738,0.00023343,0.00014586,0.00037644,0.0
 0000780,0.00040098,0.00004695,0.00010655,-0.00003026,-0.00003481,-0.00
 022104,-0.00060613,-0.00019588,0.00061918,-0.00022089,-0.00027995,-0.0
 0005004,-0.00004686,-0.00130889,-0.00026256,0.00012853,-0.00010288,0.0
 0001851,0.00009427,-0.00034975,-0.00001374,-0.00003323,-0.00005194,-0.
 00014413,-0.00004085,-0.00017681,-0.00029489,0.00006441,-0.00013145,0.
 00008276,-0.00009385,0.00002858,0.00001601,0.00012094,0.00000933,-0.00
 009977,-0.00000478,-0.00005117,-0.00007967,-0.00005760,0.00022004,0.00
 011611,0.00000599,0.00006262,0.00019601,0.00002300,-0.00004341,-0.0000
 9511,-0.00003956,0.00009520,-0.00026648,-0.00003428,-0.00000561,-0.000
 10501,-0.00004665,-0.00004919,-0.00022625,0.00002066,0.00002108,-0.000
 00980,0.00004999,0.00006354,-0.00006243,0.00001831,0.00002275,-0.00020
 795,-0.00003727,0.00003391,-0.00009497,0.00000865,-0.00010237,0.000120
 25,-0.00011947,0.00049942,-0.00020005,-0.00002515,0.00004819,-0.000024
 86,0.00001013,-0.00002376,-0.00009775,-0.00001381,-0.00014443,0.000031
 54,0.00003614,-0.00012325,0.00005981,-0.00004505,-0.00004570,-0.000130
 13,0.00019314,0.00009021,-0.00009929,-0.00006639,0.00003319,-0.0001746
 1,-0.00001212,-0.00002695,0.00011578,-0.00011249,-0.00008011,0.0002466
 4,0.00006788,0.00011611,-0.00001802,-0.00013377,-0.00016387,-0.0001138
 9,-0.00010705,0.00010239,0.00015297,0.00008727,0.00005526,0.00003764,0
 .00012284,0.00009803,-0.00021283,0.00003799,-0.00001019,-0.00019007,-0
 .00016800,-0.00010841,-0.00025329,0.00007748,0.00009933,-0.00005916,-0
 .00004834,-0.00005708,0.00000555,0.00002175,0.00682012,0.09946241,-0.0
 0188268,0.00010250,0.00091169,0.00065622,-0.00020259,0.00059141,0.0029
 2376,-0.00040163,0.00060811,-0.00178458,-0.00026292,-0.00080280,0.0000
 6184,0.00038092,-0.00047131,0.00049387,0.00004954,-0.00034516,-0.00010
 251,0.00004777,0.00027204,-0.00009510,-0.00011946,0.00023620,0.0001705
 4,0.00033744,-0.00231371,0.00099282,0.00069188,0.00003001,0.00496264,0
 .00607280,-0.00601467,0.01254767,0.01605042,-0.01324441,0.00028537,-0.
 00008367,0.00135724,0.00004544,-0.00009368,-0.00036015,-0.00021100,-0.
 00004750,-0.00048555,0.00014665,-0.00093235,0.00001184,-0.00102102,0.0
 0024050,-0.00079803,0.00458364,-0.01202578,-0.00755233,-0.02013948,0.0
 1058970,-0.00741360,0.00074961,0.00198396,-0.00094132,0.00111567,-0.00
 150775,-0.00083396,0.00108017,-0.00191504,0.00125216,0.00087240,0.0013
 9075,0.00075371,-0.00015065,0.00071826,0.00062121,-0.00038802,-0.00043
 706,0.00055222,-0.00333842,0.00173536,0.00165006,0.00052714,-0.0041276
 7,0.00003991,-0.00042330,-0.00022118,-0.00054223,0.00026562,-0.0002055
 0,-0.00048431,-0.00032168,0.00047363,-0.00037998,-0.00024922,-0.000468
 90,-0.00036169,0.00001320,-0.00013930,0.00030332,0.00011360,0.00008216
 ,0.00028979,0.00018110,-0.00002876,0.00024779,-0.00004623,0.00013005,0
 .00023412,0.00178705,0.00054179,0.00099618,-0.00066353,0.00030260,0.00
 010986,-0.00882690,0.00120707,-0.00707774,0.00334137,-0.00733712,-0.00
 572185,-0.00013028,0.00033952,0.00136743,-0.00022570,-0.00024943,0.001
 23886,0.00006476,0.00007820,-0.00034575,-0.00007333,0.00000757,-0.0003
 2777,0.00016197,-0.00018752,-0.00050931,0.00007045,0.00022613,-0.00044
 091,0.00017217,0.00001173,0.00015084,-0.00014663,0.00000766,0.00002101
 ,-0.00005770,0.00011369,0.00010703,0.00008739,0.00014257,0.00000614,0.
 00012426,0.00000687,0.00008467,-0.00006487,-0.00012875,0.00013834,-0.0
 0004517,-0.00012478,0.00005569,-0.00007779,0.00012779,0.00013418,0.000
 07905,-0.00015288,0.00000971,0.00018989,0.00013996,-0.00000767,-0.0000
 6790,-0.00003659,-0.00010556,-0.00014337,-0.00003851,0.00009279,-0.000
 00152,0.00005685,-0.00001560,0.00007364,0.00002396,-0.00011626,-0.0000
 4007,-0.00003216,-0.00001367,-0.00000900,0.00005108,-0.00016317,-0.000
 02812,-0.00016964,0.00000894,0.00004365,-0.00008114,0.00007788,-0.0001
 4011,0.00009523,0.00000823,0.00006118,-0.00006031,-0.00003733,-0.00018
 772,0.00009775,-0.00000115,0.00002078,-0.00004706,0.00013748,0.0000090
 3,-0.00008975,0.00016391,-0.00008894,0.00015372,-0.00001652,0.00006550
 ,-0.00008936,-0.00004394,-0.00009707,-0.00000113,-0.00007133,0.0000040
 1,-0.00003917,-0.00005471,0.00007141,0.00008011,-0.00001290,-0.0000202
 9,0.00011968,-0.00004532,0.00002900,0.00000697,-0.00008752,0.00001451,
 -0.00008050,0.00000613,0.00019620,0.00012882,-0.00000609,-0.00004921,-
 0.00001931,0.00015689,-0.00008303,-0.00001525,-0.00003093,-0.00011589,
 -0.00000920,-0.00002744,-0.00009011,0.00001181,0.00019057,0.00019373,-
 0.00000342,-0.00001796,0.00007133,-0.00003475,-0.00000597,0.00002800,0
 .00013258,0.00007984,-0.00002019,-0.00002142,-0.00008037,-0.00009677,0
 .00003139,0.00000677,0.00012009,-0.00005147,-0.00004760,0.00003242,-0.
 00011819,-0.00001057,0.00001677,0.00008481,-0.00009398,-0.00003615,-0.
 00000496,-0.00006294,0.00001202,0.00005127,0.00016110,0.00002311,0.000
 07927,-0.00004170,0.00000372,-0.00022585,-0.00000451,0.00004310,0.0001
 0968,-0.00004178,0.00006552,0.00005845,0.00020267,-0.00009934,-0.00016
 458,-0.00001724,0.00001675,0.00002760,-0.00005659,-0.00010652,0.000030
 78,-0.00001261,0.00002905,-0.00006999,-0.00007982,0.00006112,0.0000502
 7,-0.00000254,-0.00009307,-0.00007444,-0.00004244,-0.00000731,0.000027
 64,-0.00007533,0.00191454,-0.01286111,0.04364365\\-0.00000116,0.000002
 14,-0.00000031,-0.00000134,0.00000315,0.00000138,0.00000044,0.00000286
 ,0.00000044,0.00000173,0.00000159,0.00000212,-0.00000160,0.00000151,-0
 .00000030,-0.00000092,0.00000402,0.00000173,-0.00000187,0.00000520,0.0
 0000094,0.00000028,0.00000535,0.00000301,0.00000096,0.00000298,0.00000
 306,-0.00000385,0.00000113,-0.00000186,-0.00000234,0.00000210,-0.00000
 038,-0.00000182,0.00000203,-0.00000046,-0.00000508,0.00000193,-0.00000
 221,-0.00000555,0.00000349,-0.00000162,-0.00000631,0.00000150,-0.00000
 354,0.00000264,0.00000266,0.00000298,-0.00000335,0.00000036,-0.0000022
 4,0.00000124,0.00000134,0.00000177,-0.00000096,-0.00000102,-0.00000123
 ,0.00000252,-0.00000231,-0.00000036,-0.00000161,-0.00000131,-0.0000018
 1,-0.00000106,-0.00000308,-0.00000258,0.00000297,0.,0.00000263,-0.0000
 0235,-0.00000249,-0.00000301,0.00000376,-0.00000058,0.00000154,-0.0000
 0267,-0.00000218,-0.00000235,0.00000237,-0.00000252,0.00000157,-0.0000
 0038,-0.00000485,-0.00000210,0.00000475,-0.00000019,0.00000239,-0.0000
 0324,-0.00000418,-0.00000386,0.00000502,-0.00000205,0.00000253,-0.0000
 0320,-0.00000491,-0.00000489,0.00000593,-0.00000087,0.00000344,-0.0000
 0492,-0.00000336,-0.00000471,0.00000527,-0.00000328,0.00000170,0.00000
 216,-0.00000248,-0.00000009,0.00000011,-0.00000308,-0.00000122,-0.0000
 0010,-0.00000290,-0.00000139,0.00000231,0.00000124,0.00000188,0.000000
 52,-0.00000367,-0.00000153,0.00000283,0.00000425,0.00000388,-0.0000007
 2,-0.00000464,-0.00000298,0.00000370,0.00000332,0.00000409,0.00000180,
 -0.00000451,-0.00000100,0.00000269,0.00000533,0.00000446,-0.00000020,-
 0.00000568,-0.00000332,0.00000121,-0.00000488,-0.00000181,-0.00000024,
 -0.00000461,-0.00000261,-0.00000195,0.00000019,-0.00000116,-0.00000041
 ,0.00000115,0.00000023,-0.00000229,0.00000200,-0.00000051,0.00000464,-
 0.00000160,0.00000227,0.00000544,-0.00000024,0.00000359,0.00000390,0.0
 0000034,0.00000289,0.00000163,-0.00000435,-0.00000114,-0.00000011,-0.0
 0000253,-0.00000126,0.00000316,-0.00000052,0.00000190,0.00000555,-0.00
 000252,0.00000254,0.00000182,0.00000438,0.00000342,-0.00000016,0.00000
 337,0.00000168,-0.00000486,0.00000272,-0.00000203,-0.00000350,0.000000
 50,-0.00000198,-0.00000143,0.00000420,0.00000119,0.00000314,0.00000258
 ,0.00000336,0.00000342,0.00000536,0.00000495,0.00000267,0.00000645,0.0
 0000510,0.00000167,0.00000610,0.00000406,0.00000439,0.00000260,0.00000
 408,0.00000441,0.00000443,0.00000516,0.00000507,0.00000321,0.00000503,
 0.00000464,-0.00000411,0.00000100,0.00000465,-0.00000278,0.00000166,0.
 00000620,-0.00000391,0.00000221,0.00000714,-0.00000159,0.00000391,0.00
 000563,-0.00000034,0.00000352,0.00000609,0.,0.00000405,0.00000132,-0.0
 0000455,-0.00000145,0.00000249,-0.00000361,-0.00000026,0.00000218,-0.0
 0000555,-0.00000134,-0.00000038,-0.00000576,-0.00000290,-0.00000162,-0
 .00000393,-0.00000322,-0.00000097,-0.00000486,-0.00000315,-0.00000252,
 -0.00000458,-0.00000400,-0.00000305,-0.00000222,-0.00000312,-0.0000041
 9,-0.00000428,-0.00000486,-0.00000232,-0.00000541,-0.00000436,-0.00000
 407,-0.00000583,-0.00000557,-0.00000516,-0.00000395,-0.00000549,-0.000
 00457,-0.00000236,-0.00000424,-0.00000527,-0.00000235,-0.00000473,-0.0
 0000612,0.00000044,-0.00000383,-0.00000640,0.00000098,-0.00000369,-0.0
 0000735,0.00000221,-0.00000374,-0.00000521,0.00000334,-0.00000193,-0.0
 0000456,0.00000428,-0.00000083,-0.00000633,0.00000436,-0.00000197,-0.0
 0000002,0.00000620,0.00000305,0.00000054,0.00000602,0.00000322,0.00000
 151,0.00000461,0.00000325,-0.00000301,0.00000471,0.00000041,-0.0000021
 2,0.00000594,0.00000169,-0.00000266,0.00000609,0.00000146,-0.00000105,
 0.00000108,0.00000011\\\@


 I MET A TRAVELLER FROM AN ANTIQUE LAND
 WHO SAID... TWO VAST AND TRUNKLESS LEGS OF STONE
 STAND IN THE DESERT..... NEAR THEM,  ON THE SAND,
 HALF SUNK,  A SHATTERED VISAGE LIES,  WHOSE FROWN,
 AND WRINKLED LIP,  AND SNEER OF COLD COMMAND
 TELL THAT ITS SCULPTOR WELL THOSE PASSIONS READ
 WHICH YET SURVIVE,  STAMPED ON THESE LIFELESS THINGS
 THE HAND THAT MOCKED THEM,  AND THE HEART THAT FED-
 AND ON THE PEDESTAL THESE WORDS APPEAR 
 MY NAME IS OZYMANDIAS, KING OF KINGS--   
 LOOK ON MY WORKS YE MIGHTY AND DESPAIR. 
 NOTHING BESIDE REMAINS,  ROUND THE DECAY 
 OF THAT COLOSSAL WRECK,  BOUNDLESS AND BARE
 THE LONE AND LEVEL SANDS STRETCH FAR AWAY.
                                    SHELLEY
 Job cpu time:       0 days 22 hours 53 minutes  3.2 seconds.
 File lengths (MBytes):  RWF=   7592 Int=      0 D2E=      0 Chk=     72 Scr=      1
 Normal termination of Gaussian 09 at Sun Oct 28 19:02:11 2018.
