 Entering Gaussian System, Link 0=g09
 Input=/net/work/kozuch/EnniatinDef2TZVP/Done_nP_EB11Li_out/Freq/nP_EB11Li_out.com
 Output=/net/work/kozuch/EnniatinDef2TZVP/Done_nP_EB11Li_out/Freq/nP_EB11Li_out.log
 Initial command:
 /afs/math/software/gaussian/g09.D01/opt/@sys/l1.exe "/scratch/kozuch_g09.gCyEMA7/Gau-31002.inp" -scrdir="/scratch/kozuch_g09.gCyEMA7/"
 Entering Link 1 = /afs/math/software/gaussian/g09.D01/opt/@sys/l1.exe PID=     31003.
  
 Copyright (c) 1988,1990,1992,1993,1995,1998,2003,2009,2013,
            Gaussian, Inc.  All Rights Reserved.
  
 This is part of the Gaussian(R) 09 program.  It is based on
 the Gaussian(R) 03 system (copyright 2003, Gaussian, Inc.),
 the Gaussian(R) 98 system (copyright 1998, Gaussian, Inc.),
 the Gaussian(R) 94 system (copyright 1995, Gaussian, Inc.),
 the Gaussian 92(TM) system (copyright 1992, Gaussian, Inc.),
 the Gaussian 90(TM) system (copyright 1990, Gaussian, Inc.),
 the Gaussian 88(TM) system (copyright 1988, Gaussian, Inc.),
 the Gaussian 86(TM) system (copyright 1986, Carnegie Mellon
 University), and the Gaussian 82(TM) system (copyright 1983,
 Carnegie Mellon University). Gaussian is a federally registered
 trademark of Gaussian, Inc.
  
 This software contains proprietary and confidential information,
 including trade secrets, belonging to Gaussian, Inc.
  
 This software is provided under written license and may be
 used, copied, transmitted, or stored only in accord with that
 written license.
  
 The following legend is applicable only to US Government
 contracts under FAR:
  
                    RESTRICTED RIGHTS LEGEND
  
 Use, reproduction and disclosure by the US Government is
 subject to restrictions as set forth in subparagraphs (a)
 and (c) of the Commercial Computer Software - Restricted
 Rights clause in FAR 52.227-19.
  
 Gaussian, Inc.
 340 Quinnipiac St., Bldg. 40, Wallingford CT 06492
  
  
 ---------------------------------------------------------------
 Warning -- This program may not be used in any manner that
 competes with the business of Gaussian, Inc. or will provide
 assistance to any competitor of Gaussian, Inc.  The licensee
 of this program is prohibited from giving any competitor of
 Gaussian, Inc. access to this program.  By using this program,
 the user acknowledges that Gaussian, Inc. is engaged in the
 business of creating and licensing software in the field of
 computational chemistry and represents and warrants to the
 licensee that it is not a competitor of Gaussian, Inc. and that
 it will not use this program in any manner prohibited above.
 ---------------------------------------------------------------
  

 Cite this work as:
 Gaussian 09, Revision D.01,
 M. J. Frisch, G. W. Trucks, H. B. Schlegel, G. E. Scuseria, 
 M. A. Robb, J. R. Cheeseman, G. Scalmani, V. Barone, B. Mennucci, 
 G. A. Petersson, H. Nakatsuji, M. Caricato, X. Li, H. P. Hratchian, 
 A. F. Izmaylov, J. Bloino, G. Zheng, J. L. Sonnenberg, M. Hada, 
 M. Ehara, K. Toyota, R. Fukuda, J. Hasegawa, M. Ishida, T. Nakajima, 
 Y. Honda, O. Kitao, H. Nakai, T. Vreven, J. A. Montgomery, Jr., 
 J. E. Peralta, F. Ogliaro, M. Bearpark, J. J. Heyd, E. Brothers, 
 K. N. Kudin, V. N. Staroverov, T. Keith, R. Kobayashi, J. Normand, 
 K. Raghavachari, A. Rendell, J. C. Burant, S. S. Iyengar, J. Tomasi, 
 M. Cossi, N. Rega, J. M. Millam, M. Klene, J. E. Knox, J. B. Cross, 
 V. Bakken, C. Adamo, J. Jaramillo, R. Gomperts, R. E. Stratmann, 
 O. Yazyev, A. J. Austin, R. Cammi, C. Pomelli, J. W. Ochterski, 
 R. L. Martin, K. Morokuma, V. G. Zakrzewski, G. A. Voth, 
 P. Salvador, J. J. Dannenberg, S. Dapprich, A. D. Daniels, 
 O. Farkas, J. B. Foresman, J. V. Ortiz, J. Cioslowski, 
 and D. J. Fox, Gaussian, Inc., Wallingford CT, 2013.
 
 ******************************************
 Gaussian 09:  ES64L-G09RevD.01 24-Apr-2013
                29-Oct-2018 
 ******************************************
 %chk=nP_EB21Li_out.chk
 %mem=4GB
 ----------------------------------------------------------------------
 # bp86/gen freq int=ultrafine geom=checkpoint guess=checkpoint nosymm 
 scf=(xqc,maxconventionalcycles=128) scrf=(solvent=n-Pentadecane)
 ----------------------------------------------------------------------
 1/10=4,29=2,30=1,38=1/1,3;
 2/12=2,15=1,40=1/2;
 3/5=7,11=2,14=-4,16=1,25=1,30=1,70=2201,71=2,72=151,74=404,75=-5,116=-2,140=1/1,2,3;
 4/5=1/1;
 5/5=2,8=3,13=1,38=6,53=151,85=128,98=1/2,8;
 8/6=4,10=90,11=11/1;
 11/6=1,8=1,9=11,15=111,16=1,31=1/1,2,10;
 10/6=1,31=1/2;
 6/7=2,8=2,9=2,10=2,18=1,28=1/1;
 7/8=1,10=1,25=1,30=1/1,2,3,16;
 1/10=4,30=1/3;
 99//99;
 -------------
 nP_EB11Li_out
 -------------
 Structure from the checkpoint file:  "nP_EB21Li_out.chk"
 Charge =  1 Multiplicity = 1
 Redundant internal coordinates found in file.
 N,0,-2.6619841514,12.0555577931,13.0015944409
 C,0,-3.6126179968,13.1375561009,12.6445479161
 C,0,-3.0059558553,14.5036446763,12.9906524407
 O,0,-2.4487817426,14.7911741762,14.0444702802
 C,0,-2.6867506092,11.4819488305,14.3617446503
 C,0,-5.0227539955,12.9388124468,13.2766875111
 C,0,-5.6812163189,11.6523168744,12.7431583249
 C,0,-5.9296679091,14.1546736763,12.999593893
 O,0,-3.1832868167,15.3647639782,11.9556685723
 C,0,-0.890300556,10.5135309201,12.1451091045
 C,0,-1.6120601174,11.8716566842,12.1485456863
 O,0,-1.3274621252,12.7187733784,11.2627565781
 C,0,-1.3442568836,9.6570149751,10.9320601022
 C,0,-2.8655170594,9.417469403,10.9420984657
 C,0,-0.5827351357,8.3183701921,10.9073287794
 C,0,-2.6625205599,16.7095148242,12.1407666325
 O,0,0.5357151817,10.7349026986,11.9666988004
 O,0,-0.527287449,15.9801962665,11.2787248194
 O,0,1.8948477939,13.6671518972,11.2795147706
 O,0,1.8053641617,15.8997029938,14.0470389636
 O,0,0.6456045818,11.7018678928,14.0366279884
 N,0,3.1432386579,12.8466986537,13.0140145123
 N,0,-0.4466685045,17.4719792531,13.0132496339
 C,0,2.6741774199,11.4834682634,12.6627463823
 C,0,0.9677191983,17.7524598449,12.6627808533
 C,0,1.1837518874,11.3391492123,12.9961282279
 C,0,1.8427130086,16.5384497443,13.0009846853
 C,0,3.6499055731,13.1131938715,14.3745180357
 C,0,-0.9342353921,17.774623646,14.3733459014
 C,0,3.5414604838,10.3615965831,13.309300536
 C,0,1.5000781475,19.06797909,13.3062313451
 C,0,4.9823346031,10.4130130691,12.7658540514
 C,0,0.7238067712,20.2856748386,12.769203081
 C,0,2.9276256967,8.9690515228,13.0621251899
 C,0,3.009846786,19.2429548686,13.047042465
 O,0,2.6850347668,16.2736108594,11.9690080026
 C,0,3.5911204015,15.1505781072,12.1481342879
 C,0,2.7750120296,13.8464998667,12.1598412355
 C,0,-1.1254699526,16.6529516517,12.1572975863
 C,0,4.5553260917,15.1828094737,10.9314078166
 C,0,-3.1673894978,17.5310969226,10.9237776397
 C,0,5.5318592639,13.9921221158,10.9482063597
 C,0,-2.6031440351,18.963718845,10.927614411
 C,0,5.324514515,16.5169649364,10.893260785
 C,0,-4.7073348581,17.5527193445,10.8971028968
 H,0,4.7110841358,12.835053248,14.4889846691
 H,0,3.5009595887,14.1738319373,14.613508004
 H,0,3.0371943479,12.5384851324,15.0865665976
 H,0,-1.6853976579,11.1095273678,14.6134972189
 H,0,-2.9113389206,12.2936395944,15.0708888342
 H,0,-3.4367880828,10.6798585484,14.4662687465
 H,0,-0.1279533175,17.5400661921,15.0857117817
 H,0,-1.2342645102,18.8297958765,14.4869787138
 H,0,-1.7718002644,17.1068352738,14.6123794234
 H,0,4.1597854399,15.2962396196,13.0809201399
 H,0,3.9182305565,15.1077087217,10.0293605897
 H,0,0.9996497977,17.8672861385,11.5661572615
 H,0,1.3583544773,19.0006788456,14.4010701094
 H,0,-2.7971752158,17.0060410815,10.022420874
 H,0,-4.9033673954,12.8579840014,14.3732884648
 H,0,-1.0818812272,10.2387496799,10.027569675
 H,0,-1.0486376558,9.9535479683,13.0809330269
 H,0,-3.7186266416,13.1083527432,11.5469913609
 H,0,-3.0757004817,17.1262274687,13.0734643857
 H,0,-5.1118735845,18.0782378536,11.7827427114
 H,0,-5.0592215052,18.0905855188,9.9996272215
 H,0,-5.1307538115,16.5358494533,10.8744660016
 H,0,-1.5045746384,18.9869288944,10.8313071023
 H,0,-3.0227734808,19.528052429,10.0772335932
 H,0,-2.880604881,19.5035060005,11.8521228748
 H,0,3.6118235096,18.4410893713,13.5082121197
 H,0,3.2333923738,19.2635356463,11.9651488238
 H,0,3.3482065016,20.2008341616,13.4780183012
 H,0,1.0657704559,21.2059688999,13.2738027282
 H,0,0.8997511,20.4126034975,11.6848683667
 H,0,-0.3646316378,20.1994360274,12.9255787909
 H,0,5.9711747126,16.5504789403,9.999159886
 H,0,4.6426943919,17.3813822879,10.8549349164
 H,0,5.9747962092,16.6263090321,11.7815479789
 H,0,6.134226036,13.9782742236,11.8758011271
 H,0,5.0179199002,13.0205371243,10.8561537347
 H,0,6.2332164958,14.0774078733,10.1005753293
 H,0,3.5595723806,10.5244927373,14.4030588081
 H,0,2.7600399352,11.396767935,11.5665360822
 H,0,4.9995928874,10.1775160168,11.6854678004
 H,0,5.4534362147,11.4011013599,12.9026042113
 H,0,5.6094846099,9.6650548731,13.2813667741
 H,0,3.5884048918,8.1950690407,13.4888328092
 H,0,1.9368583847,8.8563069905,13.5352799798
 H,0,2.8200883348,8.7613383145,11.9822817919
 H,0,0.5082735808,8.4687278107,10.8801027569
 H,0,-0.8274116733,7.7063939804,11.7957845094
 H,0,-0.8714721915,7.739777473,10.0125869474
 H,0,-3.1867600376,8.9056058503,11.868418312
 H,0,-3.4429034398,10.3525545253,10.8474405719
 H,0,-3.1430885944,8.7689421177,10.0935592054
 H,0,-6.0437652669,14.3323309678,11.9149134324
 H,0,-6.9338922975,13.967303682,13.4168186647
 H,0,-5.545690005,15.0802206615,13.4623141925
 H,0,-5.0627523919,10.755220403,12.9143104856
 H,0,-6.6541550886,11.4914490709,13.2391522232
 H,0,-5.8680667819,11.7319166917,11.6561025052
 Li,0,0.0038149291,14.118592561,11.0232378095
 Recover connectivity data from disk.

 GradGradGradGradGradGradGradGradGradGradGradGradGradGradGradGradGradGrad
 Berny optimization.
 Initialization pass.
                           ----------------------------
                           !    Initial Parameters    !
                           ! (Angstroms and Degrees)  !
 --------------------------                            --------------------------
 ! Name  Definition              Value          Derivative Info.                !
 --------------------------------------------------------------------------------
 ! R1    R(1,2)                  1.4839         calculate D2E/DX2 analytically  !
 ! R2    R(1,5)                  1.4764         calculate D2E/DX2 analytically  !
 ! R3    R(1,11)                 1.3652         calculate D2E/DX2 analytically  !
 ! R4    R(2,3)                  1.5343         calculate D2E/DX2 analytically  !
 ! R5    R(2,6)                  1.5581         calculate D2E/DX2 analytically  !
 ! R6    R(2,63)                 1.1031         calculate D2E/DX2 analytically  !
 ! R7    R(3,4)                  1.2262         calculate D2E/DX2 analytically  !
 ! R8    R(3,9)                  1.358          calculate D2E/DX2 analytically  !
 ! R9    R(5,49)                 1.0976         calculate D2E/DX2 analytically  !
 ! R10   R(5,50)                 1.101          calculate D2E/DX2 analytically  !
 ! R11   R(5,51)                 1.1031         calculate D2E/DX2 analytically  !
 ! R12   R(6,7)                  1.5406         calculate D2E/DX2 analytically  !
 ! R13   R(6,8)                  1.5419         calculate D2E/DX2 analytically  !
 ! R14   R(6,60)                 1.106          calculate D2E/DX2 analytically  !
 ! R15   R(7,100)                1.103          calculate D2E/DX2 analytically  !
 ! R16   R(7,101)                1.1039         calculate D2E/DX2 analytically  !
 ! R17   R(7,102)                1.1059         calculate D2E/DX2 analytically  !
 ! R18   R(8,97)                 1.105          calculate D2E/DX2 analytically  !
 ! R19   R(8,98)                 1.1035         calculate D2E/DX2 analytically  !
 ! R20   R(8,99)                 1.1037         calculate D2E/DX2 analytically  !
 ! R21   R(9,16)                 1.4539         calculate D2E/DX2 analytically  !
 ! R22   R(10,11)                1.538          calculate D2E/DX2 analytically  !
 ! R23   R(10,13)                1.5528         calculate D2E/DX2 analytically  !
 ! R24   R(10,17)                1.4541         calculate D2E/DX2 analytically  !
 ! R25   R(10,62)                1.102          calculate D2E/DX2 analytically  !
 ! R26   R(11,12)                1.2583         calculate D2E/DX2 analytically  !
 ! R27   R(12,103)               1.9466         calculate D2E/DX2 analytically  !
 ! R28   R(13,14)                1.54           calculate D2E/DX2 analytically  !
 ! R29   R(13,15)                1.5403         calculate D2E/DX2 analytically  !
 ! R30   R(13,61)                1.107          calculate D2E/DX2 analytically  !
 ! R31   R(14,94)                1.106          calculate D2E/DX2 analytically  !
 ! R32   R(14,95)                1.1031         calculate D2E/DX2 analytically  !
 ! R33   R(14,96)                1.1035         calculate D2E/DX2 analytically  !
 ! R34   R(15,91)                1.1017         calculate D2E/DX2 analytically  !
 ! R35   R(15,92)                1.1062         calculate D2E/DX2 analytically  !
 ! R36   R(15,93)                1.1039         calculate D2E/DX2 analytically  !
 ! R37   R(16,39)                1.5382         calculate D2E/DX2 analytically  !
 ! R38   R(16,41)                1.5527         calculate D2E/DX2 analytically  !
 ! R39   R(16,64)                1.1019         calculate D2E/DX2 analytically  !
 ! R40   R(17,26)                1.3582         calculate D2E/DX2 analytically  !
 ! R41   R(18,39)                1.2579         calculate D2E/DX2 analytically  !
 ! R42   R(18,103)               1.9527         calculate D2E/DX2 analytically  !
 ! R43   R(19,38)                1.2577         calculate D2E/DX2 analytically  !
 ! R44   R(19,103)               1.961          calculate D2E/DX2 analytically  !
 ! R45   R(20,27)                1.2262         calculate D2E/DX2 analytically  !
 ! R46   R(21,26)                1.2263         calculate D2E/DX2 analytically  !
 ! R47   R(22,24)                1.4838         calculate D2E/DX2 analytically  !
 ! R48   R(22,28)                1.476          calculate D2E/DX2 analytically  !
 ! R49   R(22,38)                1.3656         calculate D2E/DX2 analytically  !
 ! R50   R(23,25)                1.4839         calculate D2E/DX2 analytically  !
 ! R51   R(23,29)                1.4762         calculate D2E/DX2 analytically  !
 ! R52   R(23,39)                1.3654         calculate D2E/DX2 analytically  !
 ! R53   R(24,26)                1.5341         calculate D2E/DX2 analytically  !
 ! R54   R(24,30)                1.5585         calculate D2E/DX2 analytically  !
 ! R55   R(24,84)                1.103          calculate D2E/DX2 analytically  !
 ! R56   R(25,27)                1.5342         calculate D2E/DX2 analytically  !
 ! R57   R(25,31)                1.5582         calculate D2E/DX2 analytically  !
 ! R58   R(25,57)                1.1031         calculate D2E/DX2 analytically  !
 ! R59   R(27,36)                1.3582         calculate D2E/DX2 analytically  !
 ! R60   R(28,46)                1.103          calculate D2E/DX2 analytically  !
 ! R61   R(28,47)                1.0974         calculate D2E/DX2 analytically  !
 ! R62   R(28,48)                1.1012         calculate D2E/DX2 analytically  !
 ! R63   R(29,52)                1.1012         calculate D2E/DX2 analytically  !
 ! R64   R(29,53)                1.1029         calculate D2E/DX2 analytically  !
 ! R65   R(29,54)                1.0975         calculate D2E/DX2 analytically  !
 ! R66   R(30,32)                1.5408         calculate D2E/DX2 analytically  !
 ! R67   R(30,34)                1.5418         calculate D2E/DX2 analytically  !
 ! R68   R(30,83)                1.106          calculate D2E/DX2 analytically  !
 ! R69   R(31,33)                1.5407         calculate D2E/DX2 analytically  !
 ! R70   R(31,35)                1.5418         calculate D2E/DX2 analytically  !
 ! R71   R(31,58)                1.106          calculate D2E/DX2 analytically  !
 ! R72   R(32,85)                1.1059         calculate D2E/DX2 analytically  !
 ! R73   R(32,86)                1.1032         calculate D2E/DX2 analytically  !
 ! R74   R(32,87)                1.1039         calculate D2E/DX2 analytically  !
 ! R75   R(33,74)                1.1039         calculate D2E/DX2 analytically  !
 ! R76   R(33,75)                1.1058         calculate D2E/DX2 analytically  !
 ! R77   R(33,76)                1.103          calculate D2E/DX2 analytically  !
 ! R78   R(34,88)                1.1035         calculate D2E/DX2 analytically  !
 ! R79   R(34,89)                1.1037         calculate D2E/DX2 analytically  !
 ! R80   R(34,90)                1.1049         calculate D2E/DX2 analytically  !
 ! R81   R(35,71)                1.1036         calculate D2E/DX2 analytically  !
 ! R82   R(35,72)                1.1049         calculate D2E/DX2 analytically  !
 ! R83   R(35,73)                1.1035         calculate D2E/DX2 analytically  !
 ! R84   R(36,37)                1.4541         calculate D2E/DX2 analytically  !
 ! R85   R(37,38)                1.5384         calculate D2E/DX2 analytically  !
 ! R86   R(37,40)                1.5528         calculate D2E/DX2 analytically  !
 ! R87   R(37,55)                1.1021         calculate D2E/DX2 analytically  !
 ! R88   R(40,42)                1.54           calculate D2E/DX2 analytically  !
 ! R89   R(40,44)                1.5405         calculate D2E/DX2 analytically  !
 ! R90   R(40,56)                1.1069         calculate D2E/DX2 analytically  !
 ! R91   R(41,43)                1.5397         calculate D2E/DX2 analytically  !
 ! R92   R(41,45)                1.5403         calculate D2E/DX2 analytically  !
 ! R93   R(41,59)                1.1069         calculate D2E/DX2 analytically  !
 ! R94   R(42,80)                1.1061         calculate D2E/DX2 analytically  !
 ! R95   R(42,81)                1.103          calculate D2E/DX2 analytically  !
 ! R96   R(42,82)                1.1035         calculate D2E/DX2 analytically  !
 ! R97   R(43,68)                1.103          calculate D2E/DX2 analytically  !
 ! R98   R(43,69)                1.1035         calculate D2E/DX2 analytically  !
 ! R99   R(43,70)                1.1059         calculate D2E/DX2 analytically  !
 ! R100  R(44,77)                1.104          calculate D2E/DX2 analytically  !
 ! R101  R(44,78)                1.1016         calculate D2E/DX2 analytically  !
 ! R102  R(44,79)                1.1063         calculate D2E/DX2 analytically  !
 ! R103  R(45,65)                1.1064         calculate D2E/DX2 analytically  !
 ! R104  R(45,66)                1.1039         calculate D2E/DX2 analytically  !
 ! R105  R(45,67)                1.1017         calculate D2E/DX2 analytically  !
 ! A1    A(2,1,5)              119.6191         calculate D2E/DX2 analytically  !
 ! A2    A(2,1,11)             116.1394         calculate D2E/DX2 analytically  !
 ! A3    A(5,1,11)             122.4266         calculate D2E/DX2 analytically  !
 ! A4    A(1,2,3)              109.977          calculate D2E/DX2 analytically  !
 ! A5    A(1,2,6)              112.9034         calculate D2E/DX2 analytically  !
 ! A6    A(1,2,63)             106.3606         calculate D2E/DX2 analytically  !
 ! A7    A(3,2,6)              112.3283         calculate D2E/DX2 analytically  !
 ! A8    A(3,2,63)             106.6204         calculate D2E/DX2 analytically  !
 ! A9    A(6,2,63)             108.2607         calculate D2E/DX2 analytically  !
 ! A10   A(2,3,4)              125.6127         calculate D2E/DX2 analytically  !
 ! A11   A(2,3,9)              109.9401         calculate D2E/DX2 analytically  !
 ! A12   A(4,3,9)              124.4456         calculate D2E/DX2 analytically  !
 ! A13   A(1,5,49)             109.1371         calculate D2E/DX2 analytically  !
 ! A14   A(1,5,50)             108.0823         calculate D2E/DX2 analytically  !
 ! A15   A(1,5,51)             112.4087         calculate D2E/DX2 analytically  !
 ! A16   A(49,5,50)            106.7687         calculate D2E/DX2 analytically  !
 ! A17   A(49,5,51)            110.6008         calculate D2E/DX2 analytically  !
 ! A18   A(50,5,51)            109.6537         calculate D2E/DX2 analytically  !
 ! A19   A(2,6,7)              110.6617         calculate D2E/DX2 analytically  !
 ! A20   A(2,6,8)              111.0281         calculate D2E/DX2 analytically  !
 ! A21   A(2,6,60)             108.2937         calculate D2E/DX2 analytically  !
 ! A22   A(7,6,8)              110.1732         calculate D2E/DX2 analytically  !
 ! A23   A(7,6,60)             109.1764         calculate D2E/DX2 analytically  !
 ! A24   A(8,6,60)             107.4145         calculate D2E/DX2 analytically  !
 ! A25   A(6,7,100)            112.6937         calculate D2E/DX2 analytically  !
 ! A26   A(6,7,101)            110.0484         calculate D2E/DX2 analytically  !
 ! A27   A(6,7,102)            110.6429         calculate D2E/DX2 analytically  !
 ! A28   A(100,7,101)          107.8162         calculate D2E/DX2 analytically  !
 ! A29   A(100,7,102)          107.8073         calculate D2E/DX2 analytically  !
 ! A30   A(101,7,102)          107.653          calculate D2E/DX2 analytically  !
 ! A31   A(6,8,97)             111.3395         calculate D2E/DX2 analytically  !
 ! A32   A(6,8,98)             109.4767         calculate D2E/DX2 analytically  !
 ! A33   A(6,8,99)             112.4129         calculate D2E/DX2 analytically  !
 ! A34   A(97,8,98)            107.7262         calculate D2E/DX2 analytically  !
 ! A35   A(97,8,99)            108.2171         calculate D2E/DX2 analytically  !
 ! A36   A(98,8,99)            107.4865         calculate D2E/DX2 analytically  !
 ! A37   A(3,9,16)             116.2765         calculate D2E/DX2 analytically  !
 ! A38   A(11,10,13)           110.5873         calculate D2E/DX2 analytically  !
 ! A39   A(11,10,17)           109.03           calculate D2E/DX2 analytically  !
 ! A40   A(11,10,62)           112.2961         calculate D2E/DX2 analytically  !
 ! A41   A(13,10,17)           105.9519         calculate D2E/DX2 analytically  !
 ! A42   A(13,10,62)           109.9439         calculate D2E/DX2 analytically  !
 ! A43   A(17,10,62)           108.8119         calculate D2E/DX2 analytically  !
 ! A44   A(1,11,10)            118.7668         calculate D2E/DX2 analytically  !
 ! A45   A(1,11,12)            121.5424         calculate D2E/DX2 analytically  !
 ! A46   A(10,11,12)           119.1296         calculate D2E/DX2 analytically  !
 ! A47   A(11,12,103)          136.5064         calculate D2E/DX2 analytically  !
 ! A48   A(10,13,14)           111.6841         calculate D2E/DX2 analytically  !
 ! A49   A(10,13,15)           110.3277         calculate D2E/DX2 analytically  !
 ! A50   A(10,13,61)           106.2092         calculate D2E/DX2 analytically  !
 ! A51   A(14,13,15)           110.689          calculate D2E/DX2 analytically  !
 ! A52   A(14,13,61)           108.7357         calculate D2E/DX2 analytically  !
 ! A53   A(15,13,61)           109.0517         calculate D2E/DX2 analytically  !
 ! A54   A(13,14,94)           111.3679         calculate D2E/DX2 analytically  !
 ! A55   A(13,14,95)           112.6216         calculate D2E/DX2 analytically  !
 ! A56   A(13,14,96)           109.5653         calculate D2E/DX2 analytically  !
 ! A57   A(94,14,95)           108.1897         calculate D2E/DX2 analytically  !
 ! A58   A(94,14,96)           107.3964         calculate D2E/DX2 analytically  !
 ! A59   A(95,14,96)           107.4914         calculate D2E/DX2 analytically  !
 ! A60   A(13,15,91)           111.8022         calculate D2E/DX2 analytically  !
 ! A61   A(13,15,92)           111.0106         calculate D2E/DX2 analytically  !
 ! A62   A(13,15,93)           109.8282         calculate D2E/DX2 analytically  !
 ! A63   A(91,15,92)           108.3244         calculate D2E/DX2 analytically  !
 ! A64   A(91,15,93)           108.0908         calculate D2E/DX2 analytically  !
 ! A65   A(92,15,93)           107.6466         calculate D2E/DX2 analytically  !
 ! A66   A(9,16,39)            108.9825         calculate D2E/DX2 analytically  !
 ! A67   A(9,16,41)            105.852          calculate D2E/DX2 analytically  !
 ! A68   A(9,16,64)            108.8581         calculate D2E/DX2 analytically  !
 ! A69   A(39,16,41)           110.6582         calculate D2E/DX2 analytically  !
 ! A70   A(39,16,64)           112.302          calculate D2E/DX2 analytically  !
 ! A71   A(41,16,64)           109.9613         calculate D2E/DX2 analytically  !
 ! A72   A(10,17,26)           116.2727         calculate D2E/DX2 analytically  !
 ! A73   A(39,18,103)          136.9374         calculate D2E/DX2 analytically  !
 ! A74   A(38,19,103)          137.1803         calculate D2E/DX2 analytically  !
 ! A75   A(24,22,28)           119.5101         calculate D2E/DX2 analytically  !
 ! A76   A(24,22,38)           116.0604         calculate D2E/DX2 analytically  !
 ! A77   A(28,22,38)           122.4738         calculate D2E/DX2 analytically  !
 ! A78   A(25,23,29)           119.5816         calculate D2E/DX2 analytically  !
 ! A79   A(25,23,39)           116.0519         calculate D2E/DX2 analytically  !
 ! A80   A(29,23,39)           122.437          calculate D2E/DX2 analytically  !
 ! A81   A(22,24,26)           110.0051         calculate D2E/DX2 analytically  !
 ! A82   A(22,24,30)           112.7814         calculate D2E/DX2 analytically  !
 ! A83   A(22,24,84)           106.4323         calculate D2E/DX2 analytically  !
 ! A84   A(26,24,30)           112.5066         calculate D2E/DX2 analytically  !
 ! A85   A(26,24,84)           106.5124         calculate D2E/DX2 analytically  !
 ! A86   A(30,24,84)           108.2048         calculate D2E/DX2 analytically  !
 ! A87   A(23,25,27)           109.997          calculate D2E/DX2 analytically  !
 ! A88   A(23,25,31)           112.8107         calculate D2E/DX2 analytically  !
 ! A89   A(23,25,57)           106.3834         calculate D2E/DX2 analytically  !
 ! A90   A(27,25,31)           112.4681         calculate D2E/DX2 analytically  !
 ! A91   A(27,25,57)           106.5595         calculate D2E/DX2 analytically  !
 ! A92   A(31,25,57)           108.2251         calculate D2E/DX2 analytically  !
 ! A93   A(17,26,21)           124.4228         calculate D2E/DX2 analytically  !
 ! A94   A(17,26,24)           109.9188         calculate D2E/DX2 analytically  !
 ! A95   A(21,26,24)           125.6565         calculate D2E/DX2 analytically  !
 ! A96   A(20,27,25)           125.6526         calculate D2E/DX2 analytically  !
 ! A97   A(20,27,36)           124.4372         calculate D2E/DX2 analytically  !
 ! A98   A(25,27,36)           109.9078         calculate D2E/DX2 analytically  !
 ! A99   A(22,28,46)           112.3571         calculate D2E/DX2 analytically  !
 ! A100  A(22,28,47)           109.1866         calculate D2E/DX2 analytically  !
 ! A101  A(22,28,48)           108.1056         calculate D2E/DX2 analytically  !
 ! A102  A(46,28,47)           110.592          calculate D2E/DX2 analytically  !
 ! A103  A(46,28,48)           109.6695         calculate D2E/DX2 analytically  !
 ! A104  A(47,28,48)           106.7424         calculate D2E/DX2 analytically  !
 ! A105  A(23,29,52)           108.0912         calculate D2E/DX2 analytically  !
 ! A106  A(23,29,53)           112.3914         calculate D2E/DX2 analytically  !
 ! A107  A(23,29,54)           109.1456         calculate D2E/DX2 analytically  !
 ! A108  A(52,29,53)           109.6537         calculate D2E/DX2 analytically  !
 ! A109  A(52,29,54)           106.7546         calculate D2E/DX2 analytically  !
 ! A110  A(53,29,54)           110.6148         calculate D2E/DX2 analytically  !
 ! A111  A(24,30,32)           110.4909         calculate D2E/DX2 analytically  !
 ! A112  A(24,30,34)           111.2298         calculate D2E/DX2 analytically  !
 ! A113  A(24,30,83)           108.2626         calculate D2E/DX2 analytically  !
 ! A114  A(32,30,34)           110.2372         calculate D2E/DX2 analytically  !
 ! A115  A(32,30,83)           109.1825         calculate D2E/DX2 analytically  !
 ! A116  A(34,30,83)           107.3435         calculate D2E/DX2 analytically  !
 ! A117  A(25,31,33)           110.5595         calculate D2E/DX2 analytically  !
 ! A118  A(25,31,35)           111.1579         calculate D2E/DX2 analytically  !
 ! A119  A(25,31,58)           108.2773         calculate D2E/DX2 analytically  !
 ! A120  A(33,31,35)           110.1866         calculate D2E/DX2 analytically  !
 ! A121  A(33,31,58)           109.1817         calculate D2E/DX2 analytically  !
 ! A122  A(35,31,58)           107.3847         calculate D2E/DX2 analytically  !
 ! A123  A(30,32,85)           110.6131         calculate D2E/DX2 analytically  !
 ! A124  A(30,32,86)           112.6759         calculate D2E/DX2 analytically  !
 ! A125  A(30,32,87)           110.1187         calculate D2E/DX2 analytically  !
 ! A126  A(85,32,86)           107.7687         calculate D2E/DX2 analytically  !
 ! A127  A(85,32,87)           107.6428         calculate D2E/DX2 analytically  !
 ! A128  A(86,32,87)           107.8418         calculate D2E/DX2 analytically  !
 ! A129  A(31,33,74)           110.0902         calculate D2E/DX2 analytically  !
 ! A130  A(31,33,75)           110.6304         calculate D2E/DX2 analytically  !
 ! A131  A(31,33,76)           112.7047         calculate D2E/DX2 analytically  !
 ! A132  A(74,33,75)           107.6533         calculate D2E/DX2 analytically  !
 ! A133  A(74,33,76)           107.8231         calculate D2E/DX2 analytically  !
 ! A134  A(75,33,76)           107.7582         calculate D2E/DX2 analytically  !
 ! A135  A(30,34,88)           109.4569         calculate D2E/DX2 analytically  !
 ! A136  A(30,34,89)           112.391          calculate D2E/DX2 analytically  !
 ! A137  A(30,34,90)           111.422          calculate D2E/DX2 analytically  !
 ! A138  A(88,34,89)           107.4637         calculate D2E/DX2 analytically  !
 ! A139  A(88,34,90)           107.7184         calculate D2E/DX2 analytically  !
 ! A140  A(89,34,90)           108.204          calculate D2E/DX2 analytically  !
 ! A141  A(31,35,71)           112.4208         calculate D2E/DX2 analytically  !
 ! A142  A(31,35,72)           111.3967         calculate D2E/DX2 analytically  !
 ! A143  A(31,35,73)           109.4571         calculate D2E/DX2 analytically  !
 ! A144  A(71,35,72)           108.1994         calculate D2E/DX2 analytically  !
 ! A145  A(71,35,73)           107.4715         calculate D2E/DX2 analytically  !
 ! A146  A(72,35,73)           107.71           calculate D2E/DX2 analytically  !
 ! A147  A(27,36,37)           116.3254         calculate D2E/DX2 analytically  !
 ! A148  A(36,37,38)           108.9693         calculate D2E/DX2 analytically  !
 ! A149  A(36,37,40)           105.9251         calculate D2E/DX2 analytically  !
 ! A150  A(36,37,55)           108.8874         calculate D2E/DX2 analytically  !
 ! A151  A(38,37,40)           110.6684         calculate D2E/DX2 analytically  !
 ! A152  A(38,37,55)           112.2904         calculate D2E/DX2 analytically  !
 ! A153  A(40,37,55)           109.8795         calculate D2E/DX2 analytically  !
 ! A154  A(19,38,22)           121.4745         calculate D2E/DX2 analytically  !
 ! A155  A(19,38,37)           119.1296         calculate D2E/DX2 analytically  !
 ! A156  A(22,38,37)           118.8377         calculate D2E/DX2 analytically  !
 ! A157  A(16,39,18)           119.1667         calculate D2E/DX2 analytically  !
 ! A158  A(16,39,23)           118.7815         calculate D2E/DX2 analytically  !
 ! A159  A(18,39,23)           121.4837         calculate D2E/DX2 analytically  !
 ! A160  A(37,40,42)           111.6634         calculate D2E/DX2 analytically  !
 ! A161  A(37,40,44)           110.3303         calculate D2E/DX2 analytically  !
 ! A162  A(37,40,56)           106.2455         calculate D2E/DX2 analytically  !
 ! A163  A(42,40,44)           110.687          calculate D2E/DX2 analytically  !
 ! A164  A(42,40,56)           108.7479         calculate D2E/DX2 analytically  !
 ! A165  A(44,40,56)           109.0245         calculate D2E/DX2 analytically  !
 ! A166  A(16,41,43)           111.7901         calculate D2E/DX2 analytically  !
 ! A167  A(16,41,45)           110.2471         calculate D2E/DX2 analytically  !
 ! A168  A(16,41,59)           106.1708         calculate D2E/DX2 analytically  !
 ! A169  A(43,41,45)           110.6921         calculate D2E/DX2 analytically  !
 ! A170  A(43,41,59)           108.7124         calculate D2E/DX2 analytically  !
 ! A171  A(45,41,59)           109.0831         calculate D2E/DX2 analytically  !
 ! A172  A(40,42,80)           111.3554         calculate D2E/DX2 analytically  !
 ! A173  A(40,42,81)           112.6241         calculate D2E/DX2 analytically  !
 ! A174  A(40,42,82)           109.5663         calculate D2E/DX2 analytically  !
 ! A175  A(80,42,81)           108.2226         calculate D2E/DX2 analytically  !
 ! A176  A(80,42,82)           107.3984         calculate D2E/DX2 analytically  !
 ! A177  A(81,42,82)           107.4653         calculate D2E/DX2 analytically  !
 ! A178  A(41,43,68)           112.6025         calculate D2E/DX2 analytically  !
 ! A179  A(41,43,69)           109.5454         calculate D2E/DX2 analytically  !
 ! A180  A(41,43,70)           111.363          calculate D2E/DX2 analytically  !
 ! A181  A(68,43,69)           107.499          calculate D2E/DX2 analytically  !
 ! A182  A(68,43,70)           108.2154         calculate D2E/DX2 analytically  !
 ! A183  A(69,43,70)           107.4093         calculate D2E/DX2 analytically  !
 ! A184  A(40,44,77)           109.8058         calculate D2E/DX2 analytically  !
 ! A185  A(40,44,78)           111.8022         calculate D2E/DX2 analytically  !
 ! A186  A(40,44,79)           111.0522         calculate D2E/DX2 analytically  !
 ! A187  A(77,44,78)           108.0923         calculate D2E/DX2 analytically  !
 ! A188  A(77,44,79)           107.6375         calculate D2E/DX2 analytically  !
 ! A189  A(78,44,79)           108.3116         calculate D2E/DX2 analytically  !
 ! A190  A(41,45,65)           110.9984         calculate D2E/DX2 analytically  !
 ! A191  A(41,45,66)           109.853          calculate D2E/DX2 analytically  !
 ! A192  A(41,45,67)           111.8158         calculate D2E/DX2 analytically  !
 ! A193  A(65,45,66)           107.6257         calculate D2E/DX2 analytically  !
 ! A194  A(65,45,67)           108.3193         calculate D2E/DX2 analytically  !
 ! A195  A(66,45,67)           108.0893         calculate D2E/DX2 analytically  !
 ! A196  A(12,103,18)          118.9121         calculate D2E/DX2 analytically  !
 ! A197  A(12,103,19)          118.547          calculate D2E/DX2 analytically  !
 ! A198  A(18,103,19)          117.6882         calculate D2E/DX2 analytically  !
 ! D1    D(5,1,2,3)             88.3093         calculate D2E/DX2 analytically  !
 ! D2    D(5,1,2,6)            -38.0192         calculate D2E/DX2 analytically  !
 ! D3    D(5,1,2,63)          -156.6094         calculate D2E/DX2 analytically  !
 ! D4    D(11,1,2,3)           -76.727          calculate D2E/DX2 analytically  !
 ! D5    D(11,1,2,6)           156.9445         calculate D2E/DX2 analytically  !
 ! D6    D(11,1,2,63)           38.3543         calculate D2E/DX2 analytically  !
 ! D7    D(2,1,5,49)          -151.9796         calculate D2E/DX2 analytically  !
 ! D8    D(2,1,5,50)           -36.2228         calculate D2E/DX2 analytically  !
 ! D9    D(2,1,5,51)            84.9313         calculate D2E/DX2 analytically  !
 ! D10   D(11,1,5,49)           12.0812         calculate D2E/DX2 analytically  !
 ! D11   D(11,1,5,50)          127.838          calculate D2E/DX2 analytically  !
 ! D12   D(11,1,5,51)         -111.0079         calculate D2E/DX2 analytically  !
 ! D13   D(2,1,11,10)         -158.4601         calculate D2E/DX2 analytically  !
 ! D14   D(2,1,11,12)           12.8723         calculate D2E/DX2 analytically  !
 ! D15   D(5,1,11,10)           36.9622         calculate D2E/DX2 analytically  !
 ! D16   D(5,1,11,12)         -151.7053         calculate D2E/DX2 analytically  !
 ! D17   D(1,2,3,4)            -46.5104         calculate D2E/DX2 analytically  !
 ! D18   D(1,2,3,9)            133.9257         calculate D2E/DX2 analytically  !
 ! D19   D(6,2,3,4)             80.1419         calculate D2E/DX2 analytically  !
 ! D20   D(6,2,3,9)            -99.4219         calculate D2E/DX2 analytically  !
 ! D21   D(63,2,3,4)          -161.4267         calculate D2E/DX2 analytically  !
 ! D22   D(63,2,3,9)            19.0095         calculate D2E/DX2 analytically  !
 ! D23   D(1,2,6,7)            -63.165          calculate D2E/DX2 analytically  !
 ! D24   D(1,2,6,8)            174.1629         calculate D2E/DX2 analytically  !
 ! D25   D(1,2,6,60)            56.466          calculate D2E/DX2 analytically  !
 ! D26   D(3,2,6,7)            171.773          calculate D2E/DX2 analytically  !
 ! D27   D(3,2,6,8)             49.1008         calculate D2E/DX2 analytically  !
 ! D28   D(3,2,6,60)           -68.596          calculate D2E/DX2 analytically  !
 ! D29   D(63,2,6,7)            54.313          calculate D2E/DX2 analytically  !
 ! D30   D(63,2,6,8)           -68.3591         calculate D2E/DX2 analytically  !
 ! D31   D(63,2,6,60)          173.9441         calculate D2E/DX2 analytically  !
 ! D32   D(2,3,9,16)           179.7342         calculate D2E/DX2 analytically  !
 ! D33   D(4,3,9,16)             0.1642         calculate D2E/DX2 analytically  !
 ! D34   D(2,6,7,100)           56.4639         calculate D2E/DX2 analytically  !
 ! D35   D(2,6,7,101)          176.8377         calculate D2E/DX2 analytically  !
 ! D36   D(2,6,7,102)          -64.3175         calculate D2E/DX2 analytically  !
 ! D37   D(8,6,7,100)          179.6324         calculate D2E/DX2 analytically  !
 ! D38   D(8,6,7,101)          -59.9938         calculate D2E/DX2 analytically  !
 ! D39   D(8,6,7,102)           58.851          calculate D2E/DX2 analytically  !
 ! D40   D(60,6,7,100)         -62.6351         calculate D2E/DX2 analytically  !
 ! D41   D(60,6,7,101)          57.7387         calculate D2E/DX2 analytically  !
 ! D42   D(60,6,7,102)         176.5835         calculate D2E/DX2 analytically  !
 ! D43   D(2,6,8,97)            58.3753         calculate D2E/DX2 analytically  !
 ! D44   D(2,6,8,98)           177.3804         calculate D2E/DX2 analytically  !
 ! D45   D(2,6,8,99)           -63.2379         calculate D2E/DX2 analytically  !
 ! D46   D(7,6,8,97)           -64.5789         calculate D2E/DX2 analytically  !
 ! D47   D(7,6,8,98)            54.4263         calculate D2E/DX2 analytically  !
 ! D48   D(7,6,8,99)           173.8079         calculate D2E/DX2 analytically  !
 ! D49   D(60,6,8,97)          176.6055         calculate D2E/DX2 analytically  !
 ! D50   D(60,6,8,98)          -64.3893         calculate D2E/DX2 analytically  !
 ! D51   D(60,6,8,99)           54.9923         calculate D2E/DX2 analytically  !
 ! D52   D(3,9,16,39)           68.8453         calculate D2E/DX2 analytically  !
 ! D53   D(3,9,16,41)         -172.109          calculate D2E/DX2 analytically  !
 ! D54   D(3,9,16,64)          -53.9451         calculate D2E/DX2 analytically  !
 ! D55   D(13,10,11,1)         101.8403         calculate D2E/DX2 analytically  !
 ! D56   D(13,10,11,12)        -69.7047         calculate D2E/DX2 analytically  !
 ! D57   D(17,10,11,1)        -142.0489         calculate D2E/DX2 analytically  !
 ! D58   D(17,10,11,12)         46.406          calculate D2E/DX2 analytically  !
 ! D59   D(62,10,11,1)         -21.3784         calculate D2E/DX2 analytically  !
 ! D60   D(62,10,11,12)        167.0765         calculate D2E/DX2 analytically  !
 ! D61   D(11,10,13,14)        -58.3739         calculate D2E/DX2 analytically  !
 ! D62   D(11,10,13,15)        178.0697         calculate D2E/DX2 analytically  !
 ! D63   D(11,10,13,61)         60.0221         calculate D2E/DX2 analytically  !
 ! D64   D(17,10,13,14)       -176.3838         calculate D2E/DX2 analytically  !
 ! D65   D(17,10,13,15)         60.0598         calculate D2E/DX2 analytically  !
 ! D66   D(17,10,13,61)        -57.9878         calculate D2E/DX2 analytically  !
 ! D67   D(62,10,13,14)         66.1973         calculate D2E/DX2 analytically  !
 ! D68   D(62,10,13,15)        -57.359          calculate D2E/DX2 analytically  !
 ! D69   D(62,10,13,61)       -175.4066         calculate D2E/DX2 analytically  !
 ! D70   D(11,10,17,26)         68.1882         calculate D2E/DX2 analytically  !
 ! D71   D(13,10,17,26)       -172.7699         calculate D2E/DX2 analytically  !
 ! D72   D(62,10,17,26)        -54.5957         calculate D2E/DX2 analytically  !
 ! D73   D(1,11,12,103)        102.4506         calculate D2E/DX2 analytically  !
 ! D74   D(10,11,12,103)       -86.2475         calculate D2E/DX2 analytically  !
 ! D75   D(11,12,103,18)      -103.1909         calculate D2E/DX2 analytically  !
 ! D76   D(11,12,103,19)        51.5989         calculate D2E/DX2 analytically  !
 ! D77   D(10,13,14,94)        -58.7664         calculate D2E/DX2 analytically  !
 ! D78   D(10,13,14,95)         62.9813         calculate D2E/DX2 analytically  !
 ! D79   D(10,13,14,96)       -177.437          calculate D2E/DX2 analytically  !
 ! D80   D(15,13,14,94)         64.5854         calculate D2E/DX2 analytically  !
 ! D81   D(15,13,14,95)       -173.6669         calculate D2E/DX2 analytically  !
 ! D82   D(15,13,14,96)        -54.0852         calculate D2E/DX2 analytically  !
 ! D83   D(61,13,14,94)       -175.6435         calculate D2E/DX2 analytically  !
 ! D84   D(61,13,14,95)        -53.8957         calculate D2E/DX2 analytically  !
 ! D85   D(61,13,14,96)         65.6859         calculate D2E/DX2 analytically  !
 ! D86   D(10,13,15,91)        -56.974          calculate D2E/DX2 analytically  !
 ! D87   D(10,13,15,92)         64.1151         calculate D2E/DX2 analytically  !
 ! D88   D(10,13,15,93)       -176.9582         calculate D2E/DX2 analytically  !
 ! D89   D(14,13,15,91)        178.8945         calculate D2E/DX2 analytically  !
 ! D90   D(14,13,15,92)        -60.0165         calculate D2E/DX2 analytically  !
 ! D91   D(14,13,15,93)         58.9103         calculate D2E/DX2 analytically  !
 ! D92   D(61,13,15,91)         59.3132         calculate D2E/DX2 analytically  !
 ! D93   D(61,13,15,92)       -179.5977         calculate D2E/DX2 analytically  !
 ! D94   D(61,13,15,93)        -60.671          calculate D2E/DX2 analytically  !
 ! D95   D(9,16,39,18)          46.1738         calculate D2E/DX2 analytically  !
 ! D96   D(9,16,39,23)        -142.338          calculate D2E/DX2 analytically  !
 ! D97   D(41,16,39,18)        -69.8285         calculate D2E/DX2 analytically  !
 ! D98   D(41,16,39,23)        101.6598         calculate D2E/DX2 analytically  !
 ! D99   D(64,16,39,18)        166.8738         calculate D2E/DX2 analytically  !
 ! D100  D(64,16,39,23)        -21.638          calculate D2E/DX2 analytically  !
 ! D101  D(9,16,41,43)        -175.735          calculate D2E/DX2 analytically  !
 ! D102  D(9,16,41,45)          60.6879         calculate D2E/DX2 analytically  !
 ! D103  D(9,16,41,59)         -57.3327         calculate D2E/DX2 analytically  !
 ! D104  D(39,16,41,43)        -57.8023         calculate D2E/DX2 analytically  !
 ! D105  D(39,16,41,45)        178.6206         calculate D2E/DX2 analytically  !
 ! D106  D(39,16,41,59)         60.6            calculate D2E/DX2 analytically  !
 ! D107  D(64,16,41,43)         66.8384         calculate D2E/DX2 analytically  !
 ! D108  D(64,16,41,45)        -56.7387         calculate D2E/DX2 analytically  !
 ! D109  D(64,16,41,59)       -174.7593         calculate D2E/DX2 analytically  !
 ! D110  D(10,17,26,21)         -0.2481         calculate D2E/DX2 analytically  !
 ! D111  D(10,17,26,24)        179.2745         calculate D2E/DX2 analytically  !
 ! D112  D(103,18,39,16)       -85.1293         calculate D2E/DX2 analytically  !
 ! D113  D(103,18,39,23)       103.6205         calculate D2E/DX2 analytically  !
 ! D114  D(39,18,103,12)        50.5485         calculate D2E/DX2 analytically  !
 ! D115  D(39,18,103,19)      -104.4563         calculate D2E/DX2 analytically  !
 ! D116  D(103,19,38,22)       102.6905         calculate D2E/DX2 analytically  !
 ! D117  D(103,19,38,37)       -85.9785         calculate D2E/DX2 analytically  !
 ! D118  D(38,19,103,12)      -104.0063         calculate D2E/DX2 analytically  !
 ! D119  D(38,19,103,18)        51.0916         calculate D2E/DX2 analytically  !
 ! D120  D(28,22,24,26)         88.715          calculate D2E/DX2 analytically  !
 ! D121  D(28,22,24,30)        -37.7791         calculate D2E/DX2 analytically  !
 ! D122  D(28,22,24,84)       -156.278          calculate D2E/DX2 analytically  !
 ! D123  D(38,22,24,26)        -75.7728         calculate D2E/DX2 analytically  !
 ! D124  D(38,22,24,30)        157.7331         calculate D2E/DX2 analytically  !
 ! D125  D(38,22,24,84)         39.2342         calculate D2E/DX2 analytically  !
 ! D126  D(24,22,28,46)         83.5552         calculate D2E/DX2 analytically  !
 ! D127  D(24,22,28,47)       -153.3665         calculate D2E/DX2 analytically  !
 ! D128  D(24,22,28,48)        -37.602          calculate D2E/DX2 analytically  !
 ! D129  D(38,22,28,46)       -112.9907         calculate D2E/DX2 analytically  !
 ! D130  D(38,22,28,47)         10.0876         calculate D2E/DX2 analytically  !
 ! D131  D(38,22,28,48)        125.8521         calculate D2E/DX2 analytically  !
 ! D132  D(24,22,38,19)         12.7401         calculate D2E/DX2 analytically  !
 ! D133  D(24,22,38,37)       -158.6155         calculate D2E/DX2 analytically  !
 ! D134  D(28,22,38,19)       -151.2451         calculate D2E/DX2 analytically  !
 ! D135  D(28,22,38,37)         37.3994         calculate D2E/DX2 analytically  !
 ! D136  D(29,23,25,27)         88.5046         calculate D2E/DX2 analytically  !
 ! D137  D(29,23,25,31)        -37.9544         calculate D2E/DX2 analytically  !
 ! D138  D(29,23,25,57)       -156.4634         calculate D2E/DX2 analytically  !
 ! D139  D(39,23,25,27)        -76.0784         calculate D2E/DX2 analytically  !
 ! D140  D(39,23,25,31)        157.4626         calculate D2E/DX2 analytically  !
 ! D141  D(39,23,25,57)         38.9536         calculate D2E/DX2 analytically  !
 ! D142  D(25,23,29,52)        -37.2358         calculate D2E/DX2 analytically  !
 ! D143  D(25,23,29,53)         83.9134         calculate D2E/DX2 analytically  !
 ! D144  D(25,23,29,54)       -152.9852         calculate D2E/DX2 analytically  !
 ! D145  D(39,23,29,52)        126.326          calculate D2E/DX2 analytically  !
 ! D146  D(39,23,29,53)       -112.5248         calculate D2E/DX2 analytically  !
 ! D147  D(39,23,29,54)         10.5766         calculate D2E/DX2 analytically  !
 ! D148  D(25,23,39,16)       -158.2797         calculate D2E/DX2 analytically  !
 ! D149  D(25,23,39,18)         13.0032         calculate D2E/DX2 analytically  !
 ! D150  D(29,23,39,16)         37.6185         calculate D2E/DX2 analytically  !
 ! D151  D(29,23,39,18)       -151.0986         calculate D2E/DX2 analytically  !
 ! D152  D(22,24,26,17)        134.7908         calculate D2E/DX2 analytically  !
 ! D153  D(22,24,26,21)        -45.6938         calculate D2E/DX2 analytically  !
 ! D154  D(30,24,26,17)        -98.5606         calculate D2E/DX2 analytically  !
 ! D155  D(30,24,26,21)         80.9548         calculate D2E/DX2 analytically  !
 ! D156  D(84,24,26,17)         19.8346         calculate D2E/DX2 analytically  !
 ! D157  D(84,24,26,21)       -160.65           calculate D2E/DX2 analytically  !
 ! D158  D(22,24,30,32)        -64.0207         calculate D2E/DX2 analytically  !
 ! D159  D(22,24,30,34)        173.205          calculate D2E/DX2 analytically  !
 ! D160  D(22,24,30,83)         55.4974         calculate D2E/DX2 analytically  !
 ! D161  D(26,24,30,32)        170.8336         calculate D2E/DX2 analytically  !
 ! D162  D(26,24,30,34)         48.0593         calculate D2E/DX2 analytically  !
 ! D163  D(26,24,30,83)        -69.6483         calculate D2E/DX2 analytically  !
 ! D164  D(84,24,30,32)         53.4378         calculate D2E/DX2 analytically  !
 ! D165  D(84,24,30,34)        -69.3365         calculate D2E/DX2 analytically  !
 ! D166  D(84,24,30,83)        172.9558         calculate D2E/DX2 analytically  !
 ! D167  D(23,25,27,20)        -46.2221         calculate D2E/DX2 analytically  !
 ! D168  D(23,25,27,36)        134.3181         calculate D2E/DX2 analytically  !
 ! D169  D(31,25,27,20)         80.4296         calculate D2E/DX2 analytically  !
 ! D170  D(31,25,27,36)        -99.0302         calculate D2E/DX2 analytically  !
 ! D171  D(57,25,27,20)       -161.1422         calculate D2E/DX2 analytically  !
 ! D172  D(57,25,27,36)         19.398          calculate D2E/DX2 analytically  !
 ! D173  D(23,25,31,33)        -63.5319         calculate D2E/DX2 analytically  !
 ! D174  D(23,25,31,35)        173.7602         calculate D2E/DX2 analytically  !
 ! D175  D(23,25,31,58)         56.0349         calculate D2E/DX2 analytically  !
 ! D176  D(27,25,31,33)        171.3407         calculate D2E/DX2 analytically  !
 ! D177  D(27,25,31,35)         48.6329         calculate D2E/DX2 analytically  !
 ! D178  D(27,25,31,58)        -69.0925         calculate D2E/DX2 analytically  !
 ! D179  D(57,25,31,33)         53.8965         calculate D2E/DX2 analytically  !
 ! D180  D(57,25,31,35)        -68.8114         calculate D2E/DX2 analytically  !
 ! D181  D(57,25,31,58)        173.4633         calculate D2E/DX2 analytically  !
 ! D182  D(20,27,36,37)         -0.0063         calculate D2E/DX2 analytically  !
 ! D183  D(25,27,36,37)        179.4615         calculate D2E/DX2 analytically  !
 ! D184  D(24,30,32,85)        -65.286          calculate D2E/DX2 analytically  !
 ! D185  D(24,30,32,86)         55.4124         calculate D2E/DX2 analytically  !
 ! D186  D(24,30,32,87)        175.8559         calculate D2E/DX2 analytically  !
 ! D187  D(34,30,32,85)         58.0655         calculate D2E/DX2 analytically  !
 ! D188  D(34,30,32,86)        178.7639         calculate D2E/DX2 analytically  !
 ! D189  D(34,30,32,87)        -60.7926         calculate D2E/DX2 analytically  !
 ! D190  D(83,30,32,85)        175.7529         calculate D2E/DX2 analytically  !
 ! D191  D(83,30,32,86)        -63.5487         calculate D2E/DX2 analytically  !
 ! D192  D(83,30,32,87)         56.8948         calculate D2E/DX2 analytically  !
 ! D193  D(24,30,34,88)        177.2889         calculate D2E/DX2 analytically  !
 ! D194  D(24,30,34,89)        -63.3855         calculate D2E/DX2 analytically  !
 ! D195  D(24,30,34,90)         58.255          calculate D2E/DX2 analytically  !
 ! D196  D(32,30,34,88)         54.3688         calculate D2E/DX2 analytically  !
 ! D197  D(32,30,34,89)        173.6944         calculate D2E/DX2 analytically  !
 ! D198  D(32,30,34,90)        -64.6651         calculate D2E/DX2 analytically  !
 ! D199  D(83,30,34,88)        -64.448          calculate D2E/DX2 analytically  !
 ! D200  D(83,30,34,89)         54.8776         calculate D2E/DX2 analytically  !
 ! D201  D(83,30,34,90)        176.5181         calculate D2E/DX2 analytically  !
 ! D202  D(25,31,33,74)        176.6468         calculate D2E/DX2 analytically  !
 ! D203  D(25,31,33,75)        -64.4894         calculate D2E/DX2 analytically  !
 ! D204  D(25,31,33,76)         56.2277         calculate D2E/DX2 analytically  !
 ! D205  D(35,31,33,74)        -60.0808         calculate D2E/DX2 analytically  !
 ! D206  D(35,31,33,75)         58.783          calculate D2E/DX2 analytically  !
 ! D207  D(35,31,33,76)        179.5001         calculate D2E/DX2 analytically  !
 ! D208  D(58,31,33,74)         57.6266         calculate D2E/DX2 analytically  !
 ! D209  D(58,31,33,75)        176.4904         calculate D2E/DX2 analytically  !
 ! D210  D(58,31,33,76)        -62.7925         calculate D2E/DX2 analytically  !
 ! D211  D(25,31,35,71)        -62.9419         calculate D2E/DX2 analytically  !
 ! D212  D(25,31,35,72)         58.6955         calculate D2E/DX2 analytically  !
 ! D213  D(25,31,35,73)        177.7034         calculate D2E/DX2 analytically  !
 ! D214  D(33,31,35,71)        174.1354         calculate D2E/DX2 analytically  !
 ! D215  D(33,31,35,72)        -64.2271         calculate D2E/DX2 analytically  !
 ! D216  D(33,31,35,73)         54.7808         calculate D2E/DX2 analytically  !
 ! D217  D(58,31,35,71)         55.3235         calculate D2E/DX2 analytically  !
 ! D218  D(58,31,35,72)        176.9609         calculate D2E/DX2 analytically  !
 ! D219  D(58,31,35,73)        -64.0312         calculate D2E/DX2 analytically  !
 ! D220  D(27,36,37,38)         68.2826         calculate D2E/DX2 analytically  !
 ! D221  D(27,36,37,40)       -172.6262         calculate D2E/DX2 analytically  !
 ! D222  D(27,36,37,55)        -54.5037         calculate D2E/DX2 analytically  !
 ! D223  D(36,37,38,19)         46.33           calculate D2E/DX2 analytically  !
 ! D224  D(36,37,38,22)       -142.1086         calculate D2E/DX2 analytically  !
 ! D225  D(40,37,38,19)        -69.7588         calculate D2E/DX2 analytically  !
 ! D226  D(40,37,38,22)        101.8027         calculate D2E/DX2 analytically  !
 ! D227  D(55,37,38,19)        167.0504         calculate D2E/DX2 analytically  !
 ! D228  D(55,37,38,22)        -21.3881         calculate D2E/DX2 analytically  !
 ! D229  D(36,37,40,42)       -176.8468         calculate D2E/DX2 analytically  !
 ! D230  D(36,37,40,44)         59.6122         calculate D2E/DX2 analytically  !
 ! D231  D(36,37,40,56)        -58.4252         calculate D2E/DX2 analytically  !
 ! D232  D(38,37,40,42)        -58.8822         calculate D2E/DX2 analytically  !
 ! D233  D(38,37,40,44)        177.5768         calculate D2E/DX2 analytically  !
 ! D234  D(38,37,40,56)         59.5394         calculate D2E/DX2 analytically  !
 ! D235  D(55,37,40,42)         65.693          calculate D2E/DX2 analytically  !
 ! D236  D(55,37,40,44)        -57.848          calculate D2E/DX2 analytically  !
 ! D237  D(55,37,40,56)       -175.8855         calculate D2E/DX2 analytically  !
 ! D238  D(37,40,42,80)        -58.3919         calculate D2E/DX2 analytically  !
 ! D239  D(37,40,42,81)         63.3912         calculate D2E/DX2 analytically  !
 ! D240  D(37,40,42,82)       -177.0579         calculate D2E/DX2 analytically  !
 ! D241  D(44,40,42,80)         64.9471         calculate D2E/DX2 analytically  !
 ! D242  D(44,40,42,81)       -173.2698         calculate D2E/DX2 analytically  !
 ! D243  D(44,40,42,82)        -53.7189         calculate D2E/DX2 analytically  !
 ! D244  D(56,40,42,80)       -175.3088         calculate D2E/DX2 analytically  !
 ! D245  D(56,40,42,81)        -53.5257         calculate D2E/DX2 analytically  !
 ! D246  D(56,40,42,82)         66.0252         calculate D2E/DX2 analytically  !
 ! D247  D(37,40,44,77)       -177.3132         calculate D2E/DX2 analytically  !
 ! D248  D(37,40,44,78)        -57.3422         calculate D2E/DX2 analytically  !
 ! D249  D(37,40,44,79)         63.7597         calculate D2E/DX2 analytically  !
 ! D250  D(42,40,44,77)         58.5812         calculate D2E/DX2 analytically  !
 ! D251  D(42,40,44,78)        178.5523         calculate D2E/DX2 analytically  !
 ! D252  D(42,40,44,79)        -60.3458         calculate D2E/DX2 analytically  !
 ! D253  D(56,40,44,77)        -60.9967         calculate D2E/DX2 analytically  !
 ! D254  D(56,40,44,78)         58.9744         calculate D2E/DX2 analytically  !
 ! D255  D(56,40,44,79)       -179.9237         calculate D2E/DX2 analytically  !
 ! D256  D(16,41,43,68)         63.1677         calculate D2E/DX2 analytically  !
 ! D257  D(16,41,43,69)       -177.2669         calculate D2E/DX2 analytically  !
 ! D258  D(16,41,43,70)        -58.5961         calculate D2E/DX2 analytically  !
 ! D259  D(45,41,43,68)       -173.5066         calculate D2E/DX2 analytically  !
 ! D260  D(45,41,43,69)        -53.9412         calculate D2E/DX2 analytically  !
 ! D261  D(45,41,43,70)         64.7296         calculate D2E/DX2 analytically  !
 ! D262  D(59,41,43,68)        -53.7096         calculate D2E/DX2 analytically  !
 ! D263  D(59,41,43,69)         65.8558         calculate D2E/DX2 analytically  !
 ! D264  D(59,41,43,70)       -175.4734         calculate D2E/DX2 analytically  !
 ! D265  D(16,41,45,65)         64.2025         calculate D2E/DX2 analytically  !
 ! D266  D(16,41,45,66)       -176.8885         calculate D2E/DX2 analytically  !
 ! D267  D(16,41,45,67)        -56.8809         calculate D2E/DX2 analytically  !
 ! D268  D(43,41,45,65)        -60.0098         calculate D2E/DX2 analytically  !
 ! D269  D(43,41,45,66)         58.8991         calculate D2E/DX2 analytically  !
 ! D270  D(43,41,45,67)        178.9068         calculate D2E/DX2 analytically  !
 ! D271  D(59,41,45,65)       -179.5842         calculate D2E/DX2 analytically  !
 ! D272  D(59,41,45,66)        -60.6753         calculate D2E/DX2 analytically  !
 ! D273  D(59,41,45,67)         59.3324         calculate D2E/DX2 analytically  !
 --------------------------------------------------------------------------------
 Trust Radius=3.00D-01 FncErr=1.00D-07 GrdErr=1.00D-07
 Number of steps in this run=      2 maximum allowed number of steps=      2.
 GradGradGradGradGradGradGradGradGradGradGradGradGradGradGradGradGradGrad

 Symmetry turned off by external request.
 Stoichiometry    C33H57LiN3O9(1+)
 Framework group  C1[X(C33H57LiN3O9)]
 Deg. of freedom   303
 Full point group                 C1      NOp   1
                          Input orientation:                          
 ---------------------------------------------------------------------
 Center     Atomic      Atomic             Coordinates (Angstroms)
 Number     Number       Type             X           Y           Z
 ---------------------------------------------------------------------
      1          7           0       -2.661984   12.055558   13.001594
      2          6           0       -3.612618   13.137556   12.644548
      3          6           0       -3.005956   14.503645   12.990652
      4          8           0       -2.448782   14.791174   14.044470
      5          6           0       -2.686751   11.481949   14.361745
      6          6           0       -5.022754   12.938812   13.276688
      7          6           0       -5.681216   11.652317   12.743158
      8          6           0       -5.929668   14.154674   12.999594
      9          8           0       -3.183287   15.364764   11.955669
     10          6           0       -0.890301   10.513531   12.145109
     11          6           0       -1.612060   11.871657   12.148546
     12          8           0       -1.327462   12.718773   11.262757
     13          6           0       -1.344257    9.657015   10.932060
     14          6           0       -2.865517    9.417469   10.942098
     15          6           0       -0.582735    8.318370   10.907329
     16          6           0       -2.662521   16.709515   12.140767
     17          8           0        0.535715   10.734903   11.966699
     18          8           0       -0.527287   15.980196   11.278725
     19          8           0        1.894848   13.667152   11.279515
     20          8           0        1.805364   15.899703   14.047039
     21          8           0        0.645605   11.701868   14.036628
     22          7           0        3.143239   12.846699   13.014015
     23          7           0       -0.446669   17.471979   13.013250
     24          6           0        2.674177   11.483468   12.662746
     25          6           0        0.967719   17.752460   12.662781
     26          6           0        1.183752   11.339149   12.996128
     27          6           0        1.842713   16.538450   13.000985
     28          6           0        3.649906   13.113194   14.374518
     29          6           0       -0.934235   17.774624   14.373346
     30          6           0        3.541460   10.361597   13.309301
     31          6           0        1.500078   19.067979   13.306231
     32          6           0        4.982335   10.413013   12.765854
     33          6           0        0.723807   20.285675   12.769203
     34          6           0        2.927626    8.969052   13.062125
     35          6           0        3.009847   19.242955   13.047042
     36          8           0        2.685035   16.273611   11.969008
     37          6           0        3.591120   15.150578   12.148134
     38          6           0        2.775012   13.846500   12.159841
     39          6           0       -1.125470   16.652952   12.157298
     40          6           0        4.555326   15.182809   10.931408
     41          6           0       -3.167389   17.531097   10.923778
     42          6           0        5.531859   13.992122   10.948206
     43          6           0       -2.603144   18.963719   10.927614
     44          6           0        5.324515   16.516965   10.893261
     45          6           0       -4.707335   17.552719   10.897103
     46          1           0        4.711084   12.835053   14.488985
     47          1           0        3.500960   14.173832   14.613508
     48          1           0        3.037194   12.538485   15.086567
     49          1           0       -1.685398   11.109527   14.613497
     50          1           0       -2.911339   12.293640   15.070889
     51          1           0       -3.436788   10.679859   14.466269
     52          1           0       -0.127953   17.540066   15.085712
     53          1           0       -1.234265   18.829796   14.486979
     54          1           0       -1.771800   17.106835   14.612379
     55          1           0        4.159785   15.296240   13.080920
     56          1           0        3.918231   15.107709   10.029361
     57          1           0        0.999650   17.867286   11.566157
     58          1           0        1.358354   19.000679   14.401070
     59          1           0       -2.797175   17.006041   10.022421
     60          1           0       -4.903367   12.857984   14.373288
     61          1           0       -1.081881   10.238750   10.027570
     62          1           0       -1.048638    9.953548   13.080933
     63          1           0       -3.718627   13.108353   11.546991
     64          1           0       -3.075700   17.126227   13.073464
     65          1           0       -5.111874   18.078238   11.782743
     66          1           0       -5.059222   18.090586    9.999627
     67          1           0       -5.130754   16.535849   10.874466
     68          1           0       -1.504575   18.986929   10.831307
     69          1           0       -3.022773   19.528052   10.077234
     70          1           0       -2.880605   19.503506   11.852123
     71          1           0        3.611824   18.441089   13.508212
     72          1           0        3.233392   19.263536   11.965149
     73          1           0        3.348207   20.200834   13.478018
     74          1           0        1.065770   21.205969   13.273803
     75          1           0        0.899751   20.412603   11.684868
     76          1           0       -0.364632   20.199436   12.925579
     77          1           0        5.971175   16.550479    9.999160
     78          1           0        4.642694   17.381382   10.854935
     79          1           0        5.974796   16.626309   11.781548
     80          1           0        6.134226   13.978274   11.875801
     81          1           0        5.017920   13.020537   10.856154
     82          1           0        6.233216   14.077408   10.100575
     83          1           0        3.559572   10.524493   14.403059
     84          1           0        2.760040   11.396768   11.566536
     85          1           0        4.999593   10.177516   11.685468
     86          1           0        5.453436   11.401101   12.902604
     87          1           0        5.609485    9.665055   13.281367
     88          1           0        3.588405    8.195069   13.488833
     89          1           0        1.936858    8.856307   13.535280
     90          1           0        2.820088    8.761338   11.982282
     91          1           0        0.508274    8.468728   10.880103
     92          1           0       -0.827412    7.706394   11.795785
     93          1           0       -0.871472    7.739777   10.012587
     94          1           0       -3.186760    8.905606   11.868418
     95          1           0       -3.442903   10.352555   10.847441
     96          1           0       -3.143089    8.768942   10.093559
     97          1           0       -6.043765   14.332331   11.914913
     98          1           0       -6.933892   13.967304   13.416819
     99          1           0       -5.545690   15.080221   13.462314
    100          1           0       -5.062752   10.755220   12.914310
    101          1           0       -6.654155   11.491449   13.239152
    102          1           0       -5.868067   11.731917   11.656103
    103          3           0        0.003815   14.118593   11.023238
 ---------------------------------------------------------------------
 Rotational constants (GHZ):      0.0734498      0.0733064      0.0416200
 General basis read from cards:  (5D, 7F)
   758 basis functions,  1508 primitive gaussians,   803 cartesian basis functions
   175 alpha electrons      175 beta electrons
       nuclear repulsion energy      6766.3782227545 Hartrees.
 NAtoms=  103 NActive=  103 NUniq=  103 SFac= 1.00D+00 NAtFMM=   60 NAOKFM=T Big=T
 Integral buffers will be    131072 words long.
 Raffenetti 2 integral format.
 Two-electron integral symmetry is turned off.
 Force inversion solution in PCM.
 ------------------------------------------------------------------------------
 Polarizable Continuum Model (PCM)
 =================================
 Model                : PCM (using non-symmetric T matrix).
 Atomic radii         : UFF (Universal Force Field).
 Polarization charges : Total charges.
 Charge compensation  : None.
 Solution method      : Matrix inversion.
 Cavity type          : Scaled VdW (van der Waals Surface) (Alpha=1.100).
 Cavity algorithm     : GePol (No added spheres)
                        Default sphere list used, NSphG=  103.
                        Lebedev-Laikov grids with approx.  5.0 points / Ang**2.
                        Smoothing algorithm: Karplus/York (Gamma=1.0000).
                        Polarization charges: spherical gaussians, with
                                              point-specific exponents (IZeta= 3).
                        Self-potential: point-specific (ISelfS= 7).
                        Self-field    : sphere-specific E.n sum rule (ISelfD= 2).
 1st derivatives      : Analytical E(r).r(x)/FMM algorithm (CHGder, D1EAlg=3).
                        Cavity 1st derivative terms included.
 2nd derivatives      : Analytical E(r).r(xy)/FMM algorithm (CHGder, D2EAlg=3).
                        Cavity 2nd derivative terms included.
 Solvent              : n-Pentadecane, Eps=   2.033300 Eps(inf)=   2.049192
 ------------------------------------------------------------------------------
 One-electron integrals computed using PRISM.
 NBasis=   758 RedAO= T EigKep=  2.10D-03  NBF=   758
 NBsUse=   758 1.00D-06 EigRej= -1.00D+00 NBFU=   758
 Initial guess from the checkpoint file:  "nP_EB21Li_out.chk"
 B after Tr=     0.000000    0.000000    0.000000
         Rot=    1.000000    0.000000    0.000000    0.000000 Ang=   0.00 deg.
 Requested convergence on RMS density matrix=1.00D-08 within 128 cycles.
 Requested convergence on MAX density matrix=1.00D-06.
 Requested convergence on             energy=1.00D-06.
 No special actions if energy rises.
 Inv3:  Mode=1 IEnd=    97983675.
 Iteration    1 A*A^-1 deviation from unit magnitude is 9.55D-15 for   1055.
 Iteration    1 A*A^-1 deviation from orthogonality  is 5.01D-15 for   5022    863.
 Iteration    1 A^-1*A deviation from unit magnitude is 7.55D-15 for    544.
 Iteration    1 A^-1*A deviation from orthogonality  is 2.65D-15 for   4478   4476.
 Error on total polarization charges =  0.00762
 SCF Done:  E(RB-P86) =  -2140.61656062     A.U. after    1 cycles
            NFock=  1  Conv=0.51D-08     -V/T= 2.0078
 QCSCF skips out because SCF is already converged.
 Range of M.O.s used for correlation:     1   758
 NBasis=   758 NAE=   175 NBE=   175 NFC=     0 NFV=     0
 NROrb=    758 NOA=   175 NOB=   175 NVA=   583 NVB=   583
 Symmetrizing basis deriv contribution to polar:
 IMax=3 JMax=2 DiffMx= 0.00D+00
 G2DrvN: will do   104 centers at a time, making    1 passes.
 Calling FoFCou, ICntrl=  3507 FMM=T I1Cent=   0 AccDes= 0.00D+00.
 NEqPCM:  Using equilibrium solvation (IEInf=0, Eps=   2.0333, EpsInf=   2.0492)
 G2PCM: DoFxE=T DoFxN=T DoGrad=T DoDP/DQ/DG/TGxP=FFFF NFrqRd=   0 IEInf=0 SqF1=F DoCFld=F IF1Alg=4.
 End of G2Drv F.D. properties file   721 does not exist.
 End of G2Drv F.D. properties file   722 does not exist.
 End of G2Drv F.D. properties file   788 does not exist.
          IDoAtm=11111111111111111111111111111111111111111111111111
          IDoAtm=11111111111111111111111111111111111111111111111111
          IDoAtm=111
 NEqPCM:  Using equilibrium solvation (IEInf=0, Eps=   2.0333, EpsInf=   2.0492)
          Differentiating once with respect to electric field.
                with respect to dipole field.
          Differentiating once with respect to nuclear coordinates.
 CalDSu exits because no D1Ps are significant.
          There are   312 degrees of freedom in the 1st order CPHF.  IDoFFX=6 NUNeed=     3.
    312 vectors produced by pass  0 Test12= 1.02D-13 1.00D-09 XBig12= 4.66D+02 4.74D+00.
 AX will form    72 AO Fock derivatives at one time.
    309 vectors produced by pass  1 Test12= 1.02D-13 1.00D-09 XBig12= 3.27D+02 3.26D+00.
    309 vectors produced by pass  2 Test12= 1.02D-13 1.00D-09 XBig12= 7.13D-01 5.52D-02.
    309 vectors produced by pass  3 Test12= 1.02D-13 1.00D-09 XBig12= 7.50D-04 1.33D-03.
    178 vectors produced by pass  4 Test12= 1.02D-13 1.00D-09 XBig12= 1.16D-07 1.36D-05.
      8 vectors produced by pass  5 Test12= 1.02D-13 1.00D-09 XBig12= 8.21D-12 1.30D-07.
      1 vectors produced by pass  6 Test12= 1.02D-13 1.00D-09 XBig12= 1.51D-15 1.82D-09.
 InvSVY:  IOpt=1 It=  1 EMax= 2.84D-14
 Solved reduced A of dimension  1426 with   312 vectors.
 Isotropic polarizability for W=    0.000000      463.26 Bohr**3.
 End of Minotr F.D. properties file   721 does not exist.
 End of Minotr F.D. properties file   722 does not exist.
 End of Minotr F.D. properties file   788 does not exist.

 **********************************************************************

            Population analysis using the SCF density.

 **********************************************************************

 Alpha  occ. eigenvalues --  -18.89531 -18.89509 -18.89488 -18.84407 -18.84398
 Alpha  occ. eigenvalues --  -18.84375 -18.84052 -18.84048 -18.84020 -14.12345
 Alpha  occ. eigenvalues --  -14.12319 -14.12302 -10.09076 -10.09069 -10.09049
 Alpha  occ. eigenvalues --  -10.07838 -10.07825 -10.07799 -10.03322 -10.03314
 Alpha  occ. eigenvalues --  -10.03305 -10.01529 -10.01514 -10.01511  -9.98913
 Alpha  occ. eigenvalues --   -9.98906  -9.98901  -9.97743  -9.97740  -9.97732
 Alpha  occ. eigenvalues --   -9.97305  -9.97301  -9.97286  -9.94488  -9.94479
 Alpha  occ. eigenvalues --   -9.94470  -9.94454  -9.94453  -9.94440  -9.94414
 Alpha  occ. eigenvalues --   -9.94406  -9.94400  -9.93957  -9.93943  -9.93933
 Alpha  occ. eigenvalues --   -1.87211  -1.07081  -1.06968  -1.06942  -1.01664
 Alpha  occ. eigenvalues --   -1.01647  -1.01368  -0.98603  -0.98458  -0.98435
 Alpha  occ. eigenvalues --   -0.91911  -0.91892  -0.91862  -0.80649  -0.79772
 Alpha  occ. eigenvalues --   -0.79766  -0.78375  -0.78369  -0.77902  -0.73050
 Alpha  occ. eigenvalues --   -0.72523  -0.72515  -0.70608  -0.70601  -0.70455
 Alpha  occ. eigenvalues --   -0.68748  -0.68737  -0.66682  -0.66458  -0.66365
 Alpha  occ. eigenvalues --   -0.66360  -0.66030  -0.66019  -0.65869  -0.61595
 Alpha  occ. eigenvalues --   -0.59692  -0.59674  -0.57868  -0.57854  -0.57447
 Alpha  occ. eigenvalues --   -0.55555  -0.55204  -0.55189  -0.53916  -0.53909
 Alpha  occ. eigenvalues --   -0.53502  -0.52711  -0.52704  -0.52507  -0.51818
 Alpha  occ. eigenvalues --   -0.51806  -0.51447  -0.49857  -0.49838  -0.49671
 Alpha  occ. eigenvalues --   -0.48003  -0.47652  -0.47630  -0.47135  -0.46350
 Alpha  occ. eigenvalues --   -0.46032  -0.46008  -0.45750  -0.45743  -0.44919
 Alpha  occ. eigenvalues --   -0.44654  -0.44653  -0.43737  -0.43708  -0.43702
 Alpha  occ. eigenvalues --   -0.43112  -0.43103  -0.42757  -0.42088  -0.41638
 Alpha  occ. eigenvalues --   -0.41626  -0.41273  -0.41269  -0.41115  -0.40092
 Alpha  occ. eigenvalues --   -0.40080  -0.39946  -0.39797  -0.39723  -0.39714
 Alpha  occ. eigenvalues --   -0.39338  -0.39333  -0.39300  -0.38797  -0.38725
 Alpha  occ. eigenvalues --   -0.38716  -0.38269  -0.38259  -0.38244  -0.38030
 Alpha  occ. eigenvalues --   -0.38022  -0.38010  -0.37841  -0.37834  -0.37256
 Alpha  occ. eigenvalues --   -0.35512  -0.35441  -0.35434  -0.34848  -0.34841
 Alpha  occ. eigenvalues --   -0.34777  -0.34602  -0.34595  -0.34579  -0.34380
 Alpha  occ. eigenvalues --   -0.34357  -0.34235  -0.33920  -0.33796  -0.33785
 Alpha  occ. eigenvalues --   -0.33534  -0.33493  -0.33479  -0.32509  -0.32324
 Alpha  occ. eigenvalues --   -0.32297  -0.29828  -0.29810  -0.29689  -0.28820
 Alpha  occ. eigenvalues --   -0.28801  -0.27948  -0.27181  -0.27169  -0.26795
 Alpha virt. eigenvalues --   -0.10962  -0.10167  -0.10139  -0.09212  -0.09110
 Alpha virt. eigenvalues --   -0.09093  -0.03023  -0.00170  -0.00078  -0.00056
 Alpha virt. eigenvalues --    0.00612   0.01335   0.01341   0.02191   0.02215
 Alpha virt. eigenvalues --    0.02437   0.02905   0.03047   0.03050   0.03847
 Alpha virt. eigenvalues --    0.03875   0.03981   0.04665   0.04677   0.04722
 Alpha virt. eigenvalues --    0.05254   0.05328   0.05336   0.05702   0.05727
 Alpha virt. eigenvalues --    0.06014   0.06434   0.06460   0.06648   0.06724
 Alpha virt. eigenvalues --    0.06743   0.07353   0.07641   0.07808   0.07848
 Alpha virt. eigenvalues --    0.08023   0.08635   0.08670   0.08901   0.09146
 Alpha virt. eigenvalues --    0.09175   0.09251   0.09640   0.09670   0.10031
 Alpha virt. eigenvalues --    0.10059   0.10073   0.10373   0.10721   0.10856
 Alpha virt. eigenvalues --    0.10884   0.11105   0.11237   0.11281   0.11460
 Alpha virt. eigenvalues --    0.11487   0.12192   0.12390   0.12453   0.12980
 Alpha virt. eigenvalues --    0.13075   0.13102   0.13656   0.13698   0.13767
 Alpha virt. eigenvalues --    0.14295   0.14529   0.14567   0.14968   0.15100
 Alpha virt. eigenvalues --    0.15153   0.15287   0.15748   0.15778   0.16054
 Alpha virt. eigenvalues --    0.16107   0.16137   0.16732   0.16873   0.16900
 Alpha virt. eigenvalues --    0.17073   0.17086   0.17262   0.17714   0.17930
 Alpha virt. eigenvalues --    0.17969   0.18255   0.18296   0.18353   0.18671
 Alpha virt. eigenvalues --    0.18806   0.18811   0.19052   0.19216   0.19229
 Alpha virt. eigenvalues --    0.19694   0.23189   0.23206   0.24061   0.28389
 Alpha virt. eigenvalues --    0.28425   0.28775   0.29377   0.29409   0.30059
 Alpha virt. eigenvalues --    0.31763   0.33742   0.33767   0.37857   0.37890
 Alpha virt. eigenvalues --    0.38686   0.38769   0.38810   0.39504   0.40019
 Alpha virt. eigenvalues --    0.40055   0.40519   0.41692   0.41718   0.42226
 Alpha virt. eigenvalues --    0.42282   0.42681   0.42721   0.42746   0.43127
 Alpha virt. eigenvalues --    0.43853   0.43921   0.43965   0.44365   0.44383
 Alpha virt. eigenvalues --    0.45513   0.46139   0.46668   0.46730   0.46738
 Alpha virt. eigenvalues --    0.47522   0.47566   0.47625   0.48597   0.48639
 Alpha virt. eigenvalues --    0.49003   0.49563   0.49642   0.50262   0.50306
 Alpha virt. eigenvalues --    0.50312   0.51631   0.51913   0.51957   0.51988
 Alpha virt. eigenvalues --    0.52856   0.52892   0.53564   0.54039   0.54135
 Alpha virt. eigenvalues --    0.54266   0.55024   0.55041   0.55498   0.55521
 Alpha virt. eigenvalues --    0.55683   0.56217   0.56930   0.56959   0.57643
 Alpha virt. eigenvalues --    0.57665   0.58310   0.59967   0.60001   0.60067
 Alpha virt. eigenvalues --    0.60685   0.60825   0.60890   0.60945   0.61594
 Alpha virt. eigenvalues --    0.61613   0.62681   0.62968   0.62985   0.63960
 Alpha virt. eigenvalues --    0.64005   0.64094   0.64964   0.67425   0.67442
 Alpha virt. eigenvalues --    0.68016   0.68468   0.68529   0.68610   0.69277
 Alpha virt. eigenvalues --    0.69323   0.69568   0.70637   0.71101   0.71104
 Alpha virt. eigenvalues --    0.71180   0.71254   0.71849   0.71868   0.72064
 Alpha virt. eigenvalues --    0.72757   0.72781   0.72977   0.73662   0.74369
 Alpha virt. eigenvalues --    0.74413   0.75047   0.76675   0.77011   0.77087
 Alpha virt. eigenvalues --    0.77247   0.77823   0.77850   0.78215   0.78250
 Alpha virt. eigenvalues --    0.78281   0.78739   0.78771   0.79463   0.79669
 Alpha virt. eigenvalues --    0.79733   0.79782   0.80032   0.80063   0.80361
 Alpha virt. eigenvalues --    0.80858   0.80881   0.81082   0.81479   0.81537
 Alpha virt. eigenvalues --    0.81951   0.82005   0.82087   0.82595   0.83048
 Alpha virt. eigenvalues --    0.83057   0.83165   0.83718   0.83754   0.84422
 Alpha virt. eigenvalues --    0.85049   0.85336   0.85374   0.85503   0.85533
 Alpha virt. eigenvalues --    0.85913   0.86112   0.86149   0.86888   0.86931
 Alpha virt. eigenvalues --    0.87224   0.88007   0.88124   0.88142   0.88885
 Alpha virt. eigenvalues --    0.89934   0.90009   0.90416   0.90846   0.90871
 Alpha virt. eigenvalues --    0.91504   0.92538   0.92561   0.93219   0.93423
 Alpha virt. eigenvalues --    0.93665   0.93797   0.94754   0.94796   0.95209
 Alpha virt. eigenvalues --    0.95676   0.95938   0.95982   0.96845   0.96880
 Alpha virt. eigenvalues --    0.97377   0.98585   0.98684   1.00244   1.00733
 Alpha virt. eigenvalues --    1.00763   1.01198   1.01488   1.01614   1.01716
 Alpha virt. eigenvalues --    1.02822   1.03145   1.03207   1.04649   1.04681
 Alpha virt. eigenvalues --    1.06019   1.06079   1.06251   1.08313   1.08375
 Alpha virt. eigenvalues --    1.08842   1.10208   1.10269   1.10381   1.11278
 Alpha virt. eigenvalues --    1.11944   1.13960   1.14025   1.14174   1.15324
 Alpha virt. eigenvalues --    1.15400   1.17279   1.18066   1.18103   1.19671
 Alpha virt. eigenvalues --    1.19967   1.20060   1.20093   1.21093   1.21376
 Alpha virt. eigenvalues --    1.21407   1.25398   1.26252   1.26346   1.27552
 Alpha virt. eigenvalues --    1.28487   1.28551   1.30034   1.30083   1.33054
 Alpha virt. eigenvalues --    1.33900   1.33927   1.34494   1.35229   1.35964
 Alpha virt. eigenvalues --    1.36051   1.37228   1.37692   1.37710   1.38700
 Alpha virt. eigenvalues --    1.38850   1.38991   1.39806   1.39846   1.39886
 Alpha virt. eigenvalues --    1.41062   1.41223   1.42520   1.42569   1.43708
 Alpha virt. eigenvalues --    1.45358   1.45459   1.46506   1.48388   1.48979
 Alpha virt. eigenvalues --    1.49019   1.50088   1.50640   1.50765   1.52972
 Alpha virt. eigenvalues --    1.53470   1.53627   1.54610   1.54905   1.54954
 Alpha virt. eigenvalues --    1.56624   1.57126   1.57271   1.58486   1.58944
 Alpha virt. eigenvalues --    1.59012   1.59685   1.60863   1.61290   1.61367
 Alpha virt. eigenvalues --    1.62165   1.63184   1.63238   1.64758   1.65085
[...]
 0,-0.00000144,-0.00001051,0.00000764,-0.00000093,-0.00038895,-0.000079
 64,0.00069028,-0.00000026,0.00000337,-0.00000236,0.00000181,0.00000090
 ,0.00000057,0.00000472,0.00000509,-0.00000233,0.00000362,0.00000195,0.
 00000620,0.00000444,0.00000341,0.00000012,-0.00000134,-0.00000075,0.00
 000026,-0.00000089,0.00000107,0.00000066,0.00000030,-0.00000029,0.0000
 0016,-0.00000013,0.00000004,-0.00000033,0.00000039,0.00000025,-0.00000
 004,0.00000041,0.00000029,0.00000031,-0.00000046,-0.00000022,0.0000000
 7,0.00000056,-0.00000043,-0.00000100,0.00000030,0.00000012,-0.00000021
 ,-0.00000006,-0.00000048,0.00000024,-0.00000015,-0.00000002,-0.0000000
 4,-0.00000011,-0.00000019,-0.00000013,-0.00000037,-0.00000046,0.000000
 48,0.00000055,0.00000009,-0.00000014,-0.00000080,-0.00000114,-0.000001
 15,0.00000265,0.00000106,-0.00000127,0.00000032,0.00000018,-0.00000081
 ,-0.00000046,-0.00000045,-0.00000008,0.00000019,0.00000011,0.00000013,
 -0.00000072,-0.00000030,-0.00000057,0.00000068,0.00000018,0.00000219,0
 .00000271,0.00000019,-0.00000300,-0.00002319,0.00002544,-0.00000003,0.
 00000561,0.00000426,-0.00000221,0.00001162,-0.00000987,-0.00000547,0.0
 0002500,0.00001601,0.00000114,0.00036218,0.00000231,-0.00015526,0.0000
 0428,0.00001958,-0.00003110,0.00002019,-0.00001864,0.00084349,0.000124
 96,-0.00008385,0.00002388,-0.00003923,0.00026645,0.00033815,0.00266627
 ,-0.00162226,0.02522420,0.00123689,-0.00137351,0.00368952,-0.00180276,
 0.05124761,-0.00016386,0.00009020,0.00008435,0.00067381,0.00035306,0.0
 0059019,0.00001185,0.00023525,0.00013779,0.00008374,0.00003536,0.00011
 944,0.00008495,0.00010030,-0.00015839,-0.00168462,0.00016995,-0.012364
 86,-0.03978809,0.02132750,-0.28617298,0.00001298,0.00087136,0.00070662
 ,0.00000153,-0.00021076,0.00011901,0.00001047,-0.00001972,-0.00003486,
 0.00017383,-0.00003666,-0.00028682,-0.00011638,-0.00005489,0.00022818,
 -0.00007306,-0.00010207,-0.00001282,0.00002702,0.00020011,-0.00004426,
 0.00006375,0.00003258,0.00001908,0.00004058,0.00005520,-0.00000587,-0.
 00000008,0.00004577,0.00005655,-0.00001728,-0.00000557,0.00002379,-0.0
 0000979,-0.00000224,0.00001406,-0.00000899,-0.00000979,0.00001574,-0.0
 0005771,0.00001721,0.00005406,-0.00000480,-0.00000278,0.00000609,-0.00
 001319,-0.00000835,0.00000535,0.00000255,0.00000400,0.00000361,0.00000
 864,0.00000476,-0.00000609,0.00003629,-0.00003122,-0.00008001,0.000011
 96,0.00000368,-0.00002783,0.00000212,0.00000068,-0.00000179,0.00000448
 ,0.00000402,-0.00000333,0.00000169,-0.00000635,0.00000286,0.,0.0000043
 1,0.00000067,-0.00000002,0.00000197,-0.00000310,0.00000009,-0.00000016
 ,-0.00000176,0.00000256,0.00000013,-0.00000456,0.00000101,-0.00000168,
 -0.00000154,-0.00001565,0.00000481,0.00001610,0.00000642,-0.00000334,-
 0.00000133,0.00000423,0.00000859,-0.00000692,0.00002778,0.00000006,-0.
 00001029,0.00000181,-0.00000109,-0.00000562,-0.00001369,0.00000068,-0.
 00002413,-0.00000043,-0.00000077,0.00000153,0.00001088,-0.00000253,0.0
 0001045,-0.00000051,0.00000112,0.00000226,-0.00000362,-0.00001748,0.00
 001129,-0.00000171,0.00000021,0.00000065,0.00000211,0.00000107,-0.0000
 0135,0.00000220,-0.00000236,0.00000082,-0.00003143,-0.00002405,0.00004
 438,0.00005165,0.00004076,0.00008746,-0.00000051,-0.00015488,0.0000467
 5,0.00000247,0.00000186,-0.00000083,-0.00000020,-0.00000189,0.00000038
 ,-0.00000021,0.00000861,-0.00000085,0.00000004,0.00000076,-0.00000022,
 0.00000049,-0.00000005,0.00000054,-0.00000130,0.00000004,0.00000106,0.
 00000092,-0.00000025,0.00000177,-0.00000295,-0.00000052,0.00000464,-0.
 00119968,-0.00219673,0.00074530,0.00000184,0.00000652,0.00000631,0.000
 00842,-0.00001734,0.00000152,-0.00089997,-0.00015869,0.00034136,-0.000
 00701,-0.00000901,0.00000122,0.00000065,0.00000926,0.00000246,0.000002
 58,-0.00000938,0.00000484,-0.00000364,0.00000295,-0.00001631,0.0000013
 2,0.00000288,-0.00000208,-0.00000089,-0.00000749,0.00000268,-0.0000010
 9,0.00000249,0.00000019,0.00000076,-0.00000007,0.00000012,-0.00000037,
 0.00000035,0.00000148,-0.00000111,-0.00000085,-0.00000043,-0.00000003,
 -0.00000120,-0.00000028,-0.00000094,0.00000007,0.00000196,-0.00000110,
 0.00000143,-0.00000092,-0.00000175,-0.00000062,0.00000083,0.00000064,0
 .00000044,-0.00000131,0.00000057,0.,0.00000010,0.00000077,0.00000037,0
 .00000028,0.00000082,-0.00000013,-0.00000183,-0.00000182,-0.00000021,0
 .00000089,0.00000078,0.00000160,0.00000172,-0.00000388,-0.00000171,0.0
 0000203,-0.00000008,0.00000002,0.00000191,0.00000043,-0.00000019,-0.00
 000021,-0.00000163,0.00000038,-0.00000003,-0.00000047,0.00000100,-0.00
 000015,-0.00000238,-0.00000164,-0.00000075,-0.00000193,-0.00000062,0.0
 0000343,0.00001913,-0.00001991,-0.00000252,-0.00000539,-0.00000406,0.0
 0000089,-0.00001025,0.00001417,0.00000579,0.00000288,-0.00004445,0.000
 01132,0.00012562,-0.00017950,-0.00005296,0.00000667,-0.00001578,0.0000
 1769,0.00038215,-0.00069335,0.00034742,0.00001136,-0.00007186,-0.00013
 795,0.00006586,-0.00004298,0.00037578,0.00014270,0.00021700,-0.0038168
 3,-0.00312190,0.00134732,-0.01295950,0.04510652,-0.02107341,0.31200247
 ,0.00334020,0.00113000,-0.00282219,-0.00056183,0.00050719,-0.00003888,
 -0.00057263,-0.00002279,0.00226801,-0.00024486,-0.00032930,-0.00081154
 ,0.00009019,-0.00092382,0.00080298,-0.00043670,-0.00008309,0.00022491,
 0.00010309,-0.00006028,-0.00016580,0.00012859,0.00013667,-0.00011658,0
 .00026759,-0.00058860,-0.00100309,0.00233262,0.00104381,-0.00067294,-0
 .00423428,-0.00659637,0.00742617,-0.01175191,-0.00830985,-0.00275851,-
 0.00057967,-0.00000643,-0.00054943,0.00004436,-0.00013269,0.00000983,0
 .00029976,0.00004179,0.00023158,0.00009787,0.00115625,0.00076940,-0.00
 270638,-0.00084184,-0.00090941,-0.00475019,0.00352920,0.00017015,-0.01
 804029,0.00462667,0.00150393,-0.00080249,0.00095561,0.00088276,-0.0016
 0943,-0.00025808,-0.00011531,0.00371636,-0.00445825,0.00527680,-0.0012
 8019,-0.00177681,-0.00228727,0.00080621,0.00202875,0.00046309,0.001349
 01,0.00006239,-0.00039200,0.00294170,0.00131871,0.00013197,0.00259323,
 -0.00224195,-0.00233516,-0.00120647,-0.00097984,-0.00086024,-0.0005209
 1,0.00012215,0.00003173,-0.00046249,0.00010745,-0.00014235,-0.00029692
 ,0.00001268,-0.00010243,0.00000564,0.00000417,0.00012326,0.00011670,0.
 00006453,0.00005993,0.00033155,-0.00001684,0.00013410,0.00009679,-0.00
 010615,-0.00001422,-0.00139415,0.00183459,0.00184078,0.00113300,-0.000
 85876,-0.00010046,-0.01299185,0.00097338,-0.01251131,-0.00183453,0.004
 52408,0.00467814,-0.00048336,0.00057192,0.00070142,-0.00004613,0.00018
 257,-0.00009207,-0.00005022,0.00006665,-0.00008517,0.00016967,0.000039
 79,0.00005716,0.00022371,-0.00033354,-0.00036177,-0.00004815,-0.000063
 02,0.00011018,0.00035027,0.00006079,0.00042620,0.00006097,0.00002657,0
 .00004881,0.00024799,0.00012601,0.00065234,0.00011220,0.00013003,-0.00
 014425,-0.00000545,0.00010523,-0.00029595,0.00008479,0.00024037,-0.000
 31004,0.00012903,-0.00010101,-0.00032177,0.00005289,-0.00006476,-0.000
 09907,-0.00000675,0.00011007,0.00008631,0.00033071,0.00067611,0.000126
 98,-0.00017922,-0.00015306,0.00029270,0.00002837,-0.00000041,0.0000425
 3,0.00003715,0.00000946,0.00002393,0.00001229,0.00007700,-0.00019574,0
 .00009760,0.00005324,-0.00008475,0.00012438,-0.00019904,-0.00009985,-0
 .00057502,0.00053910,-0.00004781,-0.00032951,-0.00019999,-0.00006236,-
 0.00003636,-0.00020160,-0.00008724,0.00002727,-0.00001618,-0.00004261,
 0.00007282,-0.00004541,0.00004690,-0.00010854,0.00000076,-0.00003602,-
 0.00004328,0.00003604,-0.00002739,0.00000845,-0.00008913,0.00003473,-0
 .00000792,-0.00005817,-0.00004796,-0.00010240,0.00003224,-0.00009664,-
 0.00001220,-0.00005745,0.00005219,-0.00007086,0.00005220,0.00002291,-0
 .00005044,0.00003149,-0.00002584,0.00001101,-0.00000325,0.00000295,-0.
 00008981,0.00006897,0.00002239,0.00015644,0.00018871,-0.00006329,-0.00
 006836,0.00002439,0.00002601,0.00004580,0.00003864,0.00005787,0.000023
 59,-0.00002214,0.00006331,-0.00015996,0.00016429,0.00013763,0.00015279
 ,0.00002692,-0.00008713,0.00011312,-0.00001957,0.00005554,-0.00030431,
 0.00021479,-0.00002572,-0.00002283,0.00003294,-0.00003842,-0.00021894,
 -0.00000761,-0.00002079,0.00005882,-0.00010845,0.00002033,-0.00004074,
 -0.00016493,-0.00000501,-0.00008488,-0.00001916,0.00004975,0.00000564,
 0.00000400,-0.00006902,-0.00010442,0.00005062,0.00001684,-0.00001916,0
 .00003052,-0.00000882,-0.00008177,0.00013266,0.00001387,-0.00002462,-0
 .00000320,-0.00003054,-0.00020515,0.00002505,-0.00008651,-0.00002329,0
 .00008534,0.00004661,-0.00005130,-0.00001479,0.00000673,0.00012631,-0.
 00002982,-0.00001491,-0.00004095,0.00002556,0.00005115,-0.00007930,-0.
 00006268,0.00001492,0.00011748,0.00005626,0.00000829,-0.00002976,-0.00
 001680,0.00002802,0.04730747,0.00459093,0.00039499,-0.00438136,-0.0012
 1153,0.00165035,-0.00050583,0.00070403,0.00374340,-0.00154197,-0.00052
 940,-0.00154018,0.00059869,0.00023359,-0.00115880,0.00052709,-0.000106
 39,-0.00036435,0.00002825,-0.00007478,0.00004425,-0.00003445,0.0001306
 4,0.00024174,-0.00009214,-0.00093496,-0.00284984,0.00163888,0.00015487
 ,0.00003551,0.00049428,-0.00601026,-0.00847171,0.01007720,-0.00984671,
 -0.00740704,-0.00244160,-0.00050630,-0.00015014,-0.00046377,-0.0001164
 2,0.00006557,0.00008347,0.00027552,0.00000628,0.00028469,0.00025721,0.
 00230229,0.00031681,-0.00111227,0.00015848,-0.00161973,0.00247179,-0.0
 1716002,0.00184407,0.00289313,-0.00533614,-0.00023860,0.00068157,-0.00
 095301,0.00040099,-0.00051717,-0.00012724,-0.00095956,-0.00101364,0.00
 015709,-0.00029511,0.00154536,0.00521865,0.00474013,0.00027515,0.00027
 293,0.00020968,-0.00169068,-0.00031832,0.00029162,0.00211979,0.0003681
 9,0.00262606,-0.00144157,0.00105322,-0.00117981,0.00023417,0.00009007,
 0.00043531,0.00135633,-0.00055904,-0.00096489,0.00007151,-0.00034300,0
 .00019228,0.00000287,-0.00050551,-0.00021481,-0.00000031,0.00014861,-0
 .00013384,0.00005548,0.00003853,0.00016850,-0.00002570,0.00004170,-0.0
 0005634,-0.00011868,0.00027838,0.00014876,0.00155123,-0.00118804,0.000
 02556,-0.00172676,0.00124203,-0.00081530,0.00164970,0.00019379,0.00158
 675,0.00544373,-0.01090855,-0.01164117,0.00006508,-0.00026321,-0.00026
 095,-0.00032281,-0.00070184,0.00072675,0.00008040,0.00015795,-0.000027
 21,0.00007401,-0.00005715,-0.00005123,-0.00009701,0.00009019,0.0000647
 0,0.00016246,0.00036899,-0.00034628,-0.00009749,-0.00002087,-0.0001220
 9,-0.00015368,0.00003912,-0.00012682,0.00003532,0.00000239,0.00001495,
 -0.00004239,0.00000020,0.00001547,0.00002471,0.00025168,-0.00055338,0.
 00008596,0.00023224,-0.00029708,-0.00019105,0.00011778,0.00055567,-0.0
 0024061,0.00028017,0.00042678,-0.00006905,0.00011966,0.00010931,-0.000
 01473,-0.00051209,0.00002101,0.00003175,0.00015169,0.00005497,-0.00001
 394,-0.00044343,0.00002432,-0.00002036,0.00012297,0.00008207,0.0002654
 4,-0.00003878,0.00022802,0.00003067,0.00006495,-0.00002226,-0.00001450
 ,-0.00015761,-0.00028840,-0.00012208,0.00040231,-0.00012971,-0.0002002
 9,-0.00007644,0.00002281,-0.00086700,-0.00014558,0.00009996,-0.0000516
 6,0.00000137,0.00002981,-0.00023188,0.00002462,-0.00004745,-0.00004978
 ,-0.00008153,0.00000887,-0.00011195,-0.00021738,0.00012985,-0.00010584
 ,0.00008242,-0.00007630,0.00000004,0.00001773,0.00006349,0.00000886,-0
 .00005544,0.00000062,-0.00001657,-0.00003488,-0.00004716,0.00014478,0.
 00008201,0.00000454,0.00004595,0.00013587,0.00000888,-0.00000190,-0.00
 004179,-0.00003925,0.00006750,-0.00017321,-0.00002400,0.00000138,-0.00
 005640,-0.00001867,-0.00002358,-0.00012049,0.00003103,0.00000829,-0.00
 000711,0.00002315,0.00003095,-0.00002674,0.00001236,0.00002280,-0.0001
 1542,-0.00004156,0.00001151,-0.00005601,0.00000738,-0.00005127,0.00005
 499,-0.00006299,0.00020280,-0.00010212,-0.00004563,0.00002365,-0.00000
 664,0.00001379,-0.00000221,-0.00004962,-0.00000623,-0.00009046,0.00002
 805,0.00001880,-0.00006908,0.00005034,-0.00002287,-0.00004397,-0.00007
 222,0.00009159,0.00004430,-0.00004776,-0.00002493,-0.00000147,-0.00008
 145,-0.00003331,-0.00001000,0.00005831,-0.00006245,-0.00004548,0.00018
 363,0.00006071,0.00003965,0.00001838,-0.00007178,-0.00013599,-0.000048
 16,-0.00008435,0.00007239,0.00011572,0.00006879,0.00003146,0.00001620,
 0.00006818,0.00006664,-0.00012104,0.00001774,0.00000113,-0.00011197,-0
 .00008881,-0.00006308,-0.00016834,0.00003930,0.00007117,-0.00003470,-0
 .00002487,-0.00002254,0.00000280,0.00001845,0.00212955,0.04256755,-0.0
 0068114,0.00008378,-0.00000720,0.00034944,-0.00006781,0.00033138,0.001
 75753,-0.00030559,0.00198972,-0.00158728,-0.00013787,-0.00093550,0.000
 17056,0.00032327,-0.00021216,0.00020494,0.00000860,-0.00019857,-0.0000
 5280,0.00002209,0.00013203,-0.00003449,-0.00004261,0.00010903,-0.00019
 903,0.00064650,-0.00096959,0.00046553,0.00040174,0.00012080,0.00230420
 ,0.00329635,-0.00278453,-0.00117589,-0.00072887,0.00056068,0.00009115,
 -0.00011381,0.00068214,0.00001190,-0.00003399,-0.00017773,-0.00006898,
 -0.00000750,-0.00023496,0.00011650,-0.00055570,0.00013469,-0.00049051,
 -0.00049490,-0.00099554,0.00174582,-0.00068688,-0.00545239,-0.00223211
 ,0.00068201,-0.00432127,0.00064330,0.00144261,-0.00090832,0.00099864,-
 0.00139504,-0.00096043,0.00030254,-0.00066521,0.00007317,0.00043884,0.
 00061085,0.00007700,-0.00010573,0.00033832,0.00031404,-0.00025753,-0.0
 0025525,0.00031732,-0.00079227,0.00138778,0.00194188,-0.00050903,-0.00
 098529,0.00195886,-0.00038622,-0.00002955,-0.00020801,0.00021654,-0.00
 032444,-0.00021249,-0.00011081,0.00017640,-0.00020205,-0.00008858,-0.0
 0018185,-0.00019537,0.00000816,-0.00005420,0.00013244,0.00004471,0.000
 03387,0.00013116,0.00005475,-0.00000807,0.00010595,-0.00001974,0.00005
 190,0.00010654,0.00063707,-0.00014211,-0.00094667,-0.00054035,0.000185
 05,0.00012178,-0.00417710,0.00045866,-0.00279232,0.00166209,-0.0038335
 2,-0.00290477,0.00005250,0.00014676,0.00068659,-0.00014838,-0.00002336
 ,0.00070037,0.00002544,0.00002672,-0.00017169,-0.00003913,0.00000702,-
 0.00017346,0.00004120,-0.00005974,-0.00023602,0.00002209,0.00006448,-0
 .00024027,0.00009294,-0.00001756,0.00002103,-0.00010727,-0.00000576,0.
 00000776,-0.00003922,0.00007949,0.00003945,0.00005032,0.00010252,0.000
 00117,0.00009211,0.00000115,0.00003255,-0.00006265,-0.00006999,0.00001
 783,-0.00005000,-0.00007323,0.00004155,-0.00003404,0.00009213,0.000021
 02,0.00005857,-0.00009456,0.00000369,0.00004869,0.00002156,-0.00001869
 ,-0.00001329,-0.00001303,-0.00014500,-0.00004723,0.00010224,-0.0000204
 6,-0.00000600,0.00000409,-0.00002147,0.00000690,-0.00000233,-0.0001496
 8,0.00000025,-0.00000578,-0.00002187,0.00000199,0.00000792,-0.00014365
 ,-0.00001692,-0.00004544,-0.00001601,-0.00007454,-0.00009267,-0.000025
 49,-0.00004508,0.00003507,-0.00001712,0.00004529,-0.00004057,-0.000030
 20,-0.00009215,0.00006188,-0.00001446,0.00001462,-0.00001034,0.0000772
 5,0.00001341,-0.00003122,0.00010162,-0.00004697,0.00008262,-0.00001991
 ,0.00003013,-0.00005963,-0.00003248,-0.00004824,-0.00000231,-0.0000269
 9,0.00000890,-0.00000426,-0.00003486,0.00003788,0.00004064,-0.00000681
 ,-0.00000801,0.00005998,-0.00001974,0.00001693,0.00000801,-0.00004542,
 0.00001289,-0.00004190,0.00000603,0.00009820,0.00004964,-0.00001449,-0
 .00001761,-0.00000700,0.00007943,-0.00005318,-0.00001860,-0.00002840,-
 0.00006829,0.00000288,-0.00003509,-0.00003828,0.00000510,0.00010083,0.
 00009457,0.00000017,-0.00002207,0.00000764,0.00000212,-0.00002192,0.00
 012502,-0.00000821,-0.00003040,-0.00000238,-0.00001936,-0.00004245,-0.
 00004215,0.00000892,0.00000926,0.00005705,-0.00002325,-0.00002113,0.00
 001736,-0.00005367,-0.00000592,0.00002337,0.00004390,-0.00003289,-0.00
 000540,-0.00000985,-0.00003495,0.00000165,0.00001700,0.00007804,0.0000
 1177,0.00005320,-0.00002660,-0.00000772,-0.00010882,-0.00001210,0.0000
 4070,0.00005645,-0.00003095,0.00001912,0.00001832,0.00010070,-0.000046
 84,-0.00008144,-0.00002029,-0.00000376,0.00000923,-0.00003434,-0.00005
 474,0.00001267,-0.00000760,0.00002314,-0.00004328,-0.00003083,0.000023
 88,0.00002993,0.00000372,-0.00004755,-0.00003916,-0.00002103,-0.000010
 70,0.00000777,-0.00004309,0.00134656,0.00074506,0.01629769\\0.00000088
 ,-0.00000099,0.00000058,-0.00000013,-0.00000105,0.00000123,0.00000038,
 -0.00000093,0.00000171,0.00000032,-0.00000097,0.00000071,0.00000123,-0
 .00000052,0.00000079,0.00000057,-0.00000148,0.00000139,0.00000110,-0.0
 0000148,0.00000154,0.00000052,-0.00000162,0.00000207,-0.00000076,-0.00
 000067,0.00000096,0.00000084,0.00000024,0.00000034,0.00000098,-0.00000
 088,-0.00000020,-0.00000030,0.00000017,0.00000047,0.00000025,-0.000000
 26,-0.00000025,0.00000087,-0.00000047,0.00000035,0.00000103,0.00000015
 ,-0.00000049,-0.00000058,-0.00000050,0.00000126,0.00000087,-0.00000017
 ,-0.00000078,-0.00000060,0.00000033,0.00000083,0.00000002,0.00000104,-
 0.00000068,0.00000013,0.00000028,-0.00000079,0.00000140,-0.00000012,-0
 .00000081,0.00000053,0.00000033,-0.00000127,-0.00000111,0.00000005,0.0
 0000056,0.00000090,0.00000102,-0.00000120,-0.00000079,-0.00000016,-0.0
 0000015,0.00000067,0.00000057,-0.00000037,-0.00000034,0.00000046,0.000
 00022,0.00000127,0.00000098,-0.00000126,-0.00000048,-0.00000048,0.0000
 0094,0.00000101,0.00000048,-0.00000155,-0.00000115,0.00000043,0.000000
 23,0.00000115,0.00000149,-0.00000215,-0.00000153,0.00000011,0.00000062
 ,0.00000177,0.00000096,-0.00000170,-0.00000102,0.00000069,-0.00000041,
 -0.00000082,0.00000067,-0.00000051,-0.00000047,0.00000106,-0.00000119,
 -0.00000031,0.00000063,-0.00000095,-0.00000044,-0.00000044,0.00000043,
 -0.00000076,0.00000150,-0.00000138,-0.00000144,-0.00000084,0.00000162,
 -0.00000028,0.00000156,-0.00000182,-0.00000183,-0.00000057,0.00000149,
 -0.00000096,0.00000160,-0.00000158,-0.00000139,-0.00000108,0.00000195,
 0.00000101,0.00000089,-0.00000183,0.00000063,0.00000058,-0.00000120,0.
 00000135,0.00000050,-0.00000126,0.00000159,-0.00000085,0.00000025,0.00
 000148,-0.00000130,0.00000061,0.00000175,-0.00000130,0.00000082,-0.000
 00002,-0.00000039,0.00000050,-0.00000048,-0.00000064,0.00000095,0.0000
 0014,-0.00000071,0.00000088,-0.00000012,0.00000105,-0.00000128,-0.0000
 0111,0.00000131,-0.00000118,-0.00000125,0.00000039,0.00000014,-0.00000
 056,0.00000010,0.00000009,-0.00000159,-0.00000042,0.00000131,0.0000009
 1,-0.00000163,0.00000154,0.00000020,0.00000010,-0.00000023,0.00000144,
 -0.00000036,-0.00000017,-0.00000008,-0.00000094,0.00000098,-0.00000067
 ,-0.00000092,0.00000150,-0.00000127,-0.00000127,0.00000224,-0.00000191
 ,-0.00000101,0.00000223,-0.00000119,-0.00000119,0.00000208,-0.00000179
 ,-0.00000013,0.00000115,-0.00000223,-0.00000047,0.00000171,-0.00000162
 ,-0.00000072,0.00000169,-0.00000077,0.00000084,-0.00000062,-0.00000157
 ,0.00000097,-0.00000044,-0.00000124,0.00000077,-0.00000034,-0.00000157
 ,0.00000017,0.00000054,-0.00000197,0.00000029,0.00000054,-0.00000145,-
 0.00000019,0.00000085,-0.00000152,0.00000185,-0.00000167,-0.00000145,0
 .00000150,-0.00000110,-0.00000091,0.00000168,-0.00000171,-0.00000017,0
 .00000172,-0.00000208,-0.00000028,0.00000152,-0.00000186,-0.00000079,0
 .00000196,-0.00000215,0.00000163,0.00000070,-0.00000177,0.00000045,0.0
 0000079,-0.00000130,0.00000078,0.00000144,-0.00000226,0.00000099,0.000
 00141,-0.00000224,0.00000155,0.00000134,-0.00000244,0.00000195,0.00000
 073,-0.00000199,0.00000179,0.00000039,-0.00000126,0.00000134,0.0000007
 4,-0.00000163,0.00000103,0.00000026,-0.00000095,0.00000150,-0.00000014
 ,-0.00000050,0.00000096,0.,-0.00000054,0.00000114,-0.00000081,0.000000
 39,0.00000056,-0.00000075,0.00000073,0.00000072,-0.00000059,0.00000039
 ,-0.00000030,-0.00000152,0.00000208,0.00000033,-0.00000202,0.00000231,
 0.00000009,-0.00000167,0.00000198,0.00000099,-0.00000138,0.00000126,0.
 00000088,-0.00000193,0.00000192,0.00000027,-0.00000153,0.00000172,-0.0
 0000072,-0.00000037,-0.00000016\\\@


 HERE WE GO......
 SLIDING DOWN THE RAZOR BLADE OF LIFE......
                                 TOM LEHRER
 Job cpu time:       0 days 10 hours 42 minutes 25.0 seconds.
 File lengths (MBytes):  RWF=   7117 Int=      0 D2E=      0 Chk=     69 Scr=      1
 Normal termination of Gaussian 09 at Tue Oct 30 08:40:44 2018.
