 Entering Gaussian System, Link 0=g09
 Input=/net/work/kozuch/EnniatinNewBS/nP_EB11Na_outdef2TZVP/Freq/nP_EB11Na_out.com
 Output=/net/work/kozuch/EnniatinNewBS/nP_EB11Na_outdef2TZVP/Freq/nP_EB11Na_out.log
 Initial command:
 /afs/math/software/gaussian/g09.D01/opt/@sys/l1.exe "/scratch/kozuch_g09.STTNejd/Gau-4214.inp" -scrdir="/scratch/kozuch_g09.STTNejd/"
 Entering Link 1 = /afs/math/software/gaussian/g09.D01/opt/@sys/l1.exe PID=      4215.
  
 Copyright (c) 1988,1990,1992,1993,1995,1998,2003,2009,2013,
            Gaussian, Inc.  All Rights Reserved.
  
 This is part of the Gaussian(R) 09 program.  It is based on
 the Gaussian(R) 03 system (copyright 2003, Gaussian, Inc.),
 the Gaussian(R) 98 system (copyright 1998, Gaussian, Inc.),
 the Gaussian(R) 94 system (copyright 1995, Gaussian, Inc.),
 the Gaussian 92(TM) system (copyright 1992, Gaussian, Inc.),
 the Gaussian 90(TM) system (copyright 1990, Gaussian, Inc.),
 the Gaussian 88(TM) system (copyright 1988, Gaussian, Inc.),
 the Gaussian 86(TM) system (copyright 1986, Carnegie Mellon
 University), and the Gaussian 82(TM) system (copyright 1983,
 Carnegie Mellon University). Gaussian is a federally registered
 trademark of Gaussian, Inc.
  
 This software contains proprietary and confidential information,
 including trade secrets, belonging to Gaussian, Inc.
  
 This software is provided under written license and may be
 used, copied, transmitted, or stored only in accord with that
 written license.
  
 The following legend is applicable only to US Government
 contracts under FAR:
  
                    RESTRICTED RIGHTS LEGEND
  
 Use, reproduction and disclosure by the US Government is
 subject to restrictions as set forth in subparagraphs (a)
 and (c) of the Commercial Computer Software - Restricted
 Rights clause in FAR 52.227-19.
  
 Gaussian, Inc.
 340 Quinnipiac St., Bldg. 40, Wallingford CT 06492
  
  
 ---------------------------------------------------------------
 Warning -- This program may not be used in any manner that
 competes with the business of Gaussian, Inc. or will provide
 assistance to any competitor of Gaussian, Inc.  The licensee
 of this program is prohibited from giving any competitor of
 Gaussian, Inc. access to this program.  By using this program,
 the user acknowledges that Gaussian, Inc. is engaged in the
 business of creating and licensing software in the field of
 computational chemistry and represents and warrants to the
 licensee that it is not a competitor of Gaussian, Inc. and that
 it will not use this program in any manner prohibited above.
 ---------------------------------------------------------------
  

 Cite this work as:
 Gaussian 09, Revision D.01,
 M. J. Frisch, G. W. Trucks, H. B. Schlegel, G. E. Scuseria, 
 M. A. Robb, J. R. Cheeseman, G. Scalmani, V. Barone, B. Mennucci, 
 G. A. Petersson, H. Nakatsuji, M. Caricato, X. Li, H. P. Hratchian, 
 A. F. Izmaylov, J. Bloino, G. Zheng, J. L. Sonnenberg, M. Hada, 
 M. Ehara, K. Toyota, R. Fukuda, J. Hasegawa, M. Ishida, T. Nakajima, 
 Y. Honda, O. Kitao, H. Nakai, T. Vreven, J. A. Montgomery, Jr., 
 J. E. Peralta, F. Ogliaro, M. Bearpark, J. J. Heyd, E. Brothers, 
 K. N. Kudin, V. N. Staroverov, T. Keith, R. Kobayashi, J. Normand, 
 K. Raghavachari, A. Rendell, J. C. Burant, S. S. Iyengar, J. Tomasi, 
 M. Cossi, N. Rega, J. M. Millam, M. Klene, J. E. Knox, J. B. Cross, 
 V. Bakken, C. Adamo, J. Jaramillo, R. Gomperts, R. E. Stratmann, 
 O. Yazyev, A. J. Austin, R. Cammi, C. Pomelli, J. W. Ochterski, 
 R. L. Martin, K. Morokuma, V. G. Zakrzewski, G. A. Voth, 
 P. Salvador, J. J. Dannenberg, S. Dapprich, A. D. Daniels, 
 O. Farkas, J. B. Foresman, J. V. Ortiz, J. Cioslowski, 
 and D. J. Fox, Gaussian, Inc., Wallingford CT, 2013.
 
 ******************************************
 Gaussian 09:  ES64L-G09RevD.01 24-Apr-2013
                26-Oct-2018 
 ******************************************
 %chk=nP_EB11Na_out.chk
 %mem=4GB
 ----------------------------------------------------------------------
 # bp86/gen freq int=ultrafine guess=checkpoint geom=checkpoint nosymm 
 scf=(xqc,maxconventionalcycles=128) scrf=(solvent=n-Pentadecane)
 ----------------------------------------------------------------------
 1/10=4,29=2,30=1,38=1/1,3;
 2/12=2,15=1,40=1/2;
 3/5=7,11=2,14=-4,16=1,25=1,30=1,70=2201,71=2,72=151,74=404,75=-5,116=-2,140=1/1,2,3;
 4/5=1/1;
 5/5=2,8=3,13=1,38=6,53=151,85=128,98=1/2,8;
 8/6=4,10=90,11=11/1;
 11/6=1,8=1,9=11,15=111,16=1,31=1/1,2,10;
 10/6=1,31=1/2;
 6/7=2,8=2,9=2,10=2,18=1,28=1/1;
 7/8=1,10=1,25=1,30=1/1,2,3,16;
 1/10=4,30=1/3;
 99//99;
 ------------
 EB21Na_nP_out
 ------------
 Structure from the checkpoint file:  "nP_EB11Na_out.chk"
 Charge =  1 Multiplicity = 1
 Redundant internal coordinates found in file.
 N,0,-3.0244072244,12.3766981078,12.3441466002
 C,0,-3.5928013159,13.6065495093,11.7542946958
 C,0,-2.7985378977,14.8102626459,12.3146164099
 O,0,-1.7948451416,14.6876220346,13.0187156708
 C,0,-3.3086469074,12.08021646,13.7621893472
 C,0,-5.1542924733,13.7144178435,11.8522641885
 C,0,-5.8344590851,12.3399853202,11.6968419147
 C,0,-5.707201036,14.6570664493,10.7602884029
 O,0,-3.2638935131,16.0027931466,11.8999249538
 C,0,-1.4184580763,10.4531074866,12.2133267098
 C,0,-1.9717154186,11.7992946099,11.6787223489
 O,0,-1.4875692521,12.2943259888,10.6357055119
 C,0,-2.0614317502,9.2032835129,11.5528943885
 C,0,-3.5961971146,9.1808383787,11.6677213733
 C,0,-1.4679339373,7.9128828925,12.1526557656
 C,0,-2.4716606914,17.184278113,12.2564313476
 O,0,0.002252908,10.362825879,11.8598728354
 O,0,-0.8737966308,16.3190629809,10.6492075505
 O,0,2.2948650233,13.7385563111,10.617734461
 O,0,1.4040229364,15.4192600613,12.9835959264
 O,0,0.4031767663,12.2749392413,13.0102599993
 N,0,3.0185777257,12.3871871747,12.3303911468
 N,0,0.0003211098,17.6312758223,12.3212232333
 C,0,2.2475065518,11.266759877,11.7510728296
 C,0,1.3352948123,17.5039753703,11.6990111809
 C,0,0.8022198251,11.3526127184,12.2973141474
 C,0,1.9924290022,16.216359101,12.2505902317
 C,0,3.418421875,12.3088718134,13.7497025422
 C,0,-0.0797018287,18.0415246338,13.7370968803
 C,0,2.9439559978,9.8676101255,11.8821897772
 C,0,2.2119472761,18.802218081,11.7712650814
 C,0,4.4725105594,9.9735301545,11.7126152776
 C,0,1.3566911699,20.0751770321,11.6161816433
 C,0,2.4043879327,8.8823554788,10.8219400569
 C,0,3.2880615715,18.8000543086,10.6629575942
 O,0,3.2419888844,16.0109437015,11.7964023669
 C,0,3.8772892157,14.7395934293,12.159775547
 C,0,2.9806468863,13.5803472649,11.6532123248
 C,0,-1.0396059104,16.9969691725,11.6887157213
 C,0,5.2722668821,14.7963770069,11.4798590442
 C,0,-3.2493783997,18.3736731899,11.6299043408
 C,0,6.0619549758,13.4815309299,11.608275305
 C,0,-2.5230221715,19.7217214732,11.7867126443
 C,0,6.0981839507,15.9673301762,12.048806334
 C,0,-4.6655252158,18.4655533488,12.233043379
 H,0,1.136419815,17.2945700811,10.6307569477
 H,0,2.7234107337,18.8351799621,12.7539245177
 H,0,3.9393596596,17.9158978516,10.7029324736
 H,0,2.8112137394,18.8294587799,9.6653852906
 H,0,3.9192140027,19.7005880431,10.7583509852
 H,0,2.0175174017,20.9595317457,11.6071133539
 H,0,0.8064323995,20.062253775,10.6575540097
 H,0,0.6274616395,20.2149308667,12.4299760301
 H,0,3.9740294738,14.71784266,13.2579463073
 H,0,5.0750501677,14.9797808637,10.4056812441
 H,0,7.0617598879,16.0414499834,11.5154871311
 H,0,5.5790249145,16.9336858344,11.9473849071
 H,0,6.3199882576,15.8057122435,13.1205637104
 H,0,6.3098813472,13.2572416545,12.6624365894
 H,0,5.5229762541,12.6195570478,11.1841717822
 H,0,7.0182621666,13.5780389634,11.0661931704
 H,0,4.4903560068,12.5245431729,13.8820761715
 H,0,2.8141733302,12.9987614566,14.3615337647
 H,0,3.2378151258,11.2855207778,14.1072716717
 H,0,2.1644475202,11.4994537037,10.6725626254
 H,0,2.7262609778,9.4526109557,12.8864774473
 H,0,2.8788929629,7.895235819,10.9593589996
 H,0,1.3146956046,8.7524072859,10.8761933988
 H,0,2.6565327445,9.2365345171,9.8048852062
 H,0,4.7282692349,10.4073348309,10.7284608802
 H,0,4.9602818247,10.5799062706,12.492267582
 H,0,4.9141495666,8.9624592287,11.7532812316
 H,0,-1.4925971816,10.4019184074,13.3123833413
 H,0,-1.7938410392,9.2603472235,10.479794326
 H,0,-0.3707113528,7.87484765,12.0617045399
 H,0,-1.7284533858,7.8218872355,13.2240228803
 H,0,-1.8823218383,7.0320322128,11.632285877
 H,0,-3.9233968807,9.0977450448,12.7208218155
 H,0,-4.0683524415,10.0715121008,11.2235896296
 H,0,-3.9872569819,8.2953666868,11.1379248546
 H,0,-2.4192371335,12.271123044,14.3855160956
 H,0,-4.116452925,12.7433451359,14.1025519019
 H,0,-3.6503153266,11.0419417689,13.8969487957
 H,0,-5.5116053085,14.2362552982,9.7561974978
 H,0,-6.8007800082,14.755078473,10.8743052429
 H,0,-5.2642399535,15.6619680327,10.8004107128
 H,0,-5.5689554463,11.6262051622,12.4928122079
 H,0,-6.9303248084,12.4720510881,11.7206645244
 H,0,-5.5772817314,11.8827941998,10.7238254158
 H,0,-5.4223373568,14.1323398835,12.8431247495
 H,0,-3.3271793507,13.5595215751,10.6810326632
 H,0,-2.4573987991,17.2577043592,13.3569427001
 H,0,-3.329919684,18.1449969536,10.5492577545
 H,0,-4.6161128922,18.6899831882,13.3152481016
 H,0,-5.2276527961,19.2819949964,11.7473904942
 H,0,-5.2381169222,17.5338556998,12.101215239
 H,0,-1.5076173164,19.7098806465,11.3593776946
 H,0,-3.0967296616,20.506286556,11.2642498885
 H,0,-2.4562420694,20.0241805954,12.8484390542
 H,0,0.9048886628,18.4189095354,14.0473926561
 H,0,-0.8084848614,18.8543060999,13.8804412584
 H,0,-0.337788055,17.1823743908,14.378298364
 Na,0,-0.008003761,14.1316130236,11.3525902614
 Recover connectivity data from disk.

 GradGradGradGradGradGradGradGradGradGradGradGradGradGradGradGradGradGrad
 Berny optimization.
 Initialization pass.
                           ----------------------------
                           !    Initial Parameters    !
                           ! (Angstroms and Degrees)  !
 --------------------------                            --------------------------
 ! Name  Definition              Value          Derivative Info.                !
 --------------------------------------------------------------------------------
 ! R1    R(1,2)                  1.4777         calculate D2E/DX2 analytically  !
 ! R2    R(1,5)                  1.4763         calculate D2E/DX2 analytically  !
 ! R3    R(1,11)                 1.3727         calculate D2E/DX2 analytically  !
 ! R4    R(2,3)                  1.5472         calculate D2E/DX2 analytically  !
 ! R5    R(2,6)                  1.5683         calculate D2E/DX2 analytically  !
 ! R6    R(2,91)                 1.1066         calculate D2E/DX2 analytically  !
 ! R7    R(3,4)                  1.2322         calculate D2E/DX2 analytically  !
 ! R8    R(3,9)                  1.3456         calculate D2E/DX2 analytically  !
 ! R9    R(4,103)                2.5056         calculate D2E/DX2 analytically  !
 ! R10   R(5,81)                 1.1027         calculate D2E/DX2 analytically  !
 ! R11   R(5,82)                 1.0992         calculate D2E/DX2 analytically  !
 ! R12   R(5,83)                 1.1013         calculate D2E/DX2 analytically  !
 ! R13   R(6,7)                  1.5414         calculate D2E/DX2 analytically  !
 ! R14   R(6,8)                  1.5449         calculate D2E/DX2 analytically  !
 ! R15   R(6,90)                 1.1083         calculate D2E/DX2 analytically  !
 ! R16   R(7,87)                 1.1016         calculate D2E/DX2 analytically  !
 ! R17   R(7,88)                 1.1041         calculate D2E/DX2 analytically  !
 ! R18   R(7,89)                 1.1054         calculate D2E/DX2 analytically  !
 ! R19   R(8,84)                 1.1061         calculate D2E/DX2 analytically  !
 ! R20   R(8,85)                 1.1039         calculate D2E/DX2 analytically  !
 ! R21   R(8,86)                 1.0989         calculate D2E/DX2 analytically  !
 ! R22   R(9,16)                 1.4665         calculate D2E/DX2 analytically  !
 ! R23   R(10,11)                1.5505         calculate D2E/DX2 analytically  !
 ! R24   R(10,13)                1.5529         calculate D2E/DX2 analytically  !
 ! R25   R(10,17)                1.4668         calculate D2E/DX2 analytically  !
 ! R26   R(10,73)                1.1027         calculate D2E/DX2 analytically  !
 ! R27   R(11,12)                1.2519         calculate D2E/DX2 analytically  !
 ! R28   R(12,103)               2.4655         calculate D2E/DX2 analytically  !
 ! R29   R(13,14)                1.5392         calculate D2E/DX2 analytically  !
 ! R30   R(13,15)                1.5418         calculate D2E/DX2 analytically  !
 ! R31   R(13,74)                1.1074         calculate D2E/DX2 analytically  !
 ! R32   R(14,78)                1.1059         calculate D2E/DX2 analytically  !
 ! R33   R(14,79)                1.1016         calculate D2E/DX2 analytically  !
 ! R34   R(14,80)                1.1035         calculate D2E/DX2 analytically  !
 ! R35   R(15,75)                1.1016         calculate D2E/DX2 analytically  !
 ! R36   R(15,76)                1.1063         calculate D2E/DX2 analytically  !
 ! R37   R(15,77)                1.1038         calculate D2E/DX2 analytically  !
 ! R38   R(16,39)                1.5518         calculate D2E/DX2 analytically  !
 ! R39   R(16,41)                1.5531         calculate D2E/DX2 analytically  !
 ! R40   R(16,92)                1.1031         calculate D2E/DX2 analytically  !
 ! R41   R(17,26)                1.3457         calculate D2E/DX2 analytically  !
 ! R42   R(18,39)                1.252          calculate D2E/DX2 analytically  !
 ! R43   R(18,103)               2.4555         calculate D2E/DX2 analytically  !
 ! R44   R(19,38)                1.252          calculate D2E/DX2 analytically  !
 ! R45   R(19,103)               2.449          calculate D2E/DX2 analytically  !
 ! R46   R(20,27)                1.2324         calculate D2E/DX2 analytically  !
 ! R47   R(20,103)               2.5124         calculate D2E/DX2 analytically  !
 ! R48   R(21,26)                1.2322         calculate D2E/DX2 analytically  !
 ! R49   R(22,24)                1.4783         calculate D2E/DX2 analytically  !
 ! R50   R(22,28)                1.4766         calculate D2E/DX2 analytically  !
 ! R51   R(22,38)                1.3725         calculate D2E/DX2 analytically  !
 ! R52   R(23,25)                1.4783         calculate D2E/DX2 analytically  !
 ! R53   R(23,29)                1.4763         calculate D2E/DX2 analytically  !
 ! R54   R(23,39)                1.3725         calculate D2E/DX2 analytically  !
 ! R55   R(24,26)                1.5475         calculate D2E/DX2 analytically  !
 ! R56   R(24,30)                1.5684         calculate D2E/DX2 analytically  !
 ! R57   R(24,65)                1.1064         calculate D2E/DX2 analytically  !
 ! R58   R(25,27)                1.5473         calculate D2E/DX2 analytically  !
 ! R59   R(25,31)                1.5682         calculate D2E/DX2 analytically  !
 ! R60   R(25,46)                1.1066         calculate D2E/DX2 analytically  !
 ! R61   R(27,36)                1.3453         calculate D2E/DX2 analytically  !
 ! R62   R(28,62)                1.1014         calculate D2E/DX2 analytically  !
 ! R63   R(28,63)                1.1025         calculate D2E/DX2 analytically  !
 ! R64   R(28,64)                1.099          calculate D2E/DX2 analytically  !
 ! R65   R(29,100)               1.0991         calculate D2E/DX2 analytically  !
 ! R66   R(29,101)               1.101          calculate D2E/DX2 analytically  !
 ! R67   R(29,102)               1.1027         calculate D2E/DX2 analytically  !
 ! R68   R(30,32)                1.5416         calculate D2E/DX2 analytically  !
 ! R69   R(30,34)                1.5447         calculate D2E/DX2 analytically  !
 ! R70   R(30,66)                1.1082         calculate D2E/DX2 analytically  !
 ! R71   R(31,33)                1.5414         calculate D2E/DX2 analytically  !
 ! R72   R(31,35)                1.5448         calculate D2E/DX2 analytically  !
 ! R73   R(31,47)                1.1083         calculate D2E/DX2 analytically  !
 ! R74   R(32,70)                1.1055         calculate D2E/DX2 analytically  !
 ! R75   R(32,71)                1.1016         calculate D2E/DX2 analytically  !
 ! R76   R(32,72)                1.1041         calculate D2E/DX2 analytically  !
 ! R77   R(33,51)                1.104          calculate D2E/DX2 analytically  !
 ! R78   R(33,52)                1.1054         calculate D2E/DX2 analytically  !
 ! R79   R(33,53)                1.1016         calculate D2E/DX2 analytically  !
 ! R80   R(34,67)                1.1038         calculate D2E/DX2 analytically  !
 ! R81   R(34,68)                1.0988         calculate D2E/DX2 analytically  !
 ! R82   R(34,69)                1.1061         calculate D2E/DX2 analytically  !
 ! R83   R(35,48)                1.0989         calculate D2E/DX2 analytically  !
 ! R84   R(35,49)                1.1061         calculate D2E/DX2 analytically  !
 ! R85   R(35,50)                1.1038         calculate D2E/DX2 analytically  !
 ! R86   R(36,37)                1.467          calculate D2E/DX2 analytically  !
 ! R87   R(37,38)                1.5506         calculate D2E/DX2 analytically  !
 ! R88   R(37,40)                1.5529         calculate D2E/DX2 analytically  !
 ! R89   R(37,54)                1.1026         calculate D2E/DX2 analytically  !
 ! R90   R(40,42)                1.5391         calculate D2E/DX2 analytically  !
 ! R91   R(40,44)                1.5417         calculate D2E/DX2 analytically  !
 ! R92   R(40,55)                1.1074         calculate D2E/DX2 analytically  !
 ! R93   R(41,43)                1.5393         calculate D2E/DX2 analytically  !
 ! R94   R(41,45)                1.542          calculate D2E/DX2 analytically  !
 ! R95   R(41,93)                1.1075         calculate D2E/DX2 analytically  !
 ! R96   R(42,59)                1.1059         calculate D2E/DX2 analytically  !
 ! R97   R(42,60)                1.1015         calculate D2E/DX2 analytically  !
 ! R98   R(42,61)                1.1035         calculate D2E/DX2 analytically  !
 ! R99   R(43,97)                1.1017         calculate D2E/DX2 analytically  !
 ! R100  R(43,98)                1.1035         calculate D2E/DX2 analytically  !
 ! R101  R(43,99)                1.106          calculate D2E/DX2 analytically  !
 ! R102  R(44,56)                1.1038         calculate D2E/DX2 analytically  !
 ! R103  R(44,57)                1.1017         calculate D2E/DX2 analytically  !
 ! R104  R(44,58)                1.1063         calculate D2E/DX2 analytically  !
 ! R105  R(45,94)                1.1063         calculate D2E/DX2 analytically  !
 ! R106  R(45,95)                1.1038         calculate D2E/DX2 analytically  !
 ! R107  R(45,96)                1.1015         calculate D2E/DX2 analytically  !
 ! A1    A(2,1,5)              118.4571         calculate D2E/DX2 analytically  !
 ! A2    A(2,1,11)             116.844          calculate D2E/DX2 analytically  !
 ! A3    A(5,1,11)             121.9236         calculate D2E/DX2 analytically  !
 ! A4    A(1,2,3)              107.7879         calculate D2E/DX2 analytically  !
 ! A5    A(1,2,6)              114.5382         calculate D2E/DX2 analytically  !
 ! A6    A(1,2,91)             105.0368         calculate D2E/DX2 analytically  !
 ! A7    A(3,2,6)              115.7858         calculate D2E/DX2 analytically  !
 ! A8    A(3,2,91)             105.1339         calculate D2E/DX2 analytically  !
 ! A9    A(6,2,91)             107.6075         calculate D2E/DX2 analytically  !
 ! A10   A(2,3,4)              123.2089         calculate D2E/DX2 analytically  !
 ! A11   A(2,3,9)              113.6003         calculate D2E/DX2 analytically  !
 ! A12   A(4,3,9)              123.095          calculate D2E/DX2 analytically  !
 ! A13   A(3,4,103)            102.8863         calculate D2E/DX2 analytically  !
 ! A14   A(1,5,81)             110.6639         calculate D2E/DX2 analytically  !
 ! A15   A(1,5,82)             108.5283         calculate D2E/DX2 analytically  !
 ! A16   A(1,5,83)             111.5053         calculate D2E/DX2 analytically  !
 ! A17   A(81,5,82)            108.2569         calculate D2E/DX2 analytically  !
 ! A18   A(81,5,83)            110.1368         calculate D2E/DX2 analytically  !
 ! A19   A(82,5,83)            107.6306         calculate D2E/DX2 analytically  !
 ! A20   A(2,6,7)              111.8225         calculate D2E/DX2 analytically  !
 ! A21   A(2,6,8)              110.7419         calculate D2E/DX2 analytically  !
 ! A22   A(2,6,90)             108.8199         calculate D2E/DX2 analytically  !
 ! A23   A(7,6,8)              108.3537         calculate D2E/DX2 analytically  !
 ! A24   A(7,6,90)             108.643          calculate D2E/DX2 analytically  !
 ! A25   A(8,6,90)             108.3783         calculate D2E/DX2 analytically  !
 ! A26   A(6,7,87)             113.4879         calculate D2E/DX2 analytically  !
 ! A27   A(6,7,88)             109.2178         calculate D2E/DX2 analytically  !
 ! A28   A(6,7,89)             110.7868         calculate D2E/DX2 analytically  !
 ! A29   A(87,7,88)            107.5263         calculate D2E/DX2 analytically  !
 ! A30   A(87,7,89)            108.1771         calculate D2E/DX2 analytically  !
 ! A31   A(88,7,89)            107.4213         calculate D2E/DX2 analytically  !
 ! A32   A(6,8,84)             110.2554         calculate D2E/DX2 analytically  !
 ! A33   A(6,8,85)             109.6168         calculate D2E/DX2 analytically  !
 ! A34   A(6,8,86)             112.8234         calculate D2E/DX2 analytically  !
 ! A35   A(84,8,85)            107.6209         calculate D2E/DX2 analytically  !
 ! A36   A(84,8,86)            108.044          calculate D2E/DX2 analytically  !
 ! A37   A(85,8,86)            108.3224         calculate D2E/DX2 analytically  !
 ! A38   A(3,9,16)             116.8883         calculate D2E/DX2 analytically  !
 ! A39   A(11,10,13)           113.8523         calculate D2E/DX2 analytically  !
 ! A40   A(11,10,17)           108.419          calculate D2E/DX2 analytically  !
 ! A41   A(11,10,73)           111.0971         calculate D2E/DX2 analytically  !
 ! A42   A(13,10,17)           104.419          calculate D2E/DX2 analytically  !
 ! A43   A(13,10,73)           111.0179         calculate D2E/DX2 analytically  !
 ! A44   A(17,10,73)           107.6034         calculate D2E/DX2 analytically  !
 ! A45   A(1,11,10)            118.1443         calculate D2E/DX2 analytically  !
 ! A46   A(1,11,12)            122.2828         calculate D2E/DX2 analytically  !
 ! A47   A(10,11,12)           119.5095         calculate D2E/DX2 analytically  !
 ! A48   A(11,12,103)          106.5284         calculate D2E/DX2 analytically  !
 ! A49   A(10,13,14)           113.1317         calculate D2E/DX2 analytically  !
 ! A50   A(10,13,15)           110.4123         calculate D2E/DX2 analytically  !
 ! A51   A(10,13,74)           105.6987         calculate D2E/DX2 analytically  !
 ! A52   A(14,13,15)           110.0356         calculate D2E/DX2 analytically  !
 ! A53   A(14,13,74)           108.2988         calculate D2E/DX2 analytically  !
 ! A54   A(15,13,74)           109.0903         calculate D2E/DX2 analytically  !
 ! A55   A(13,14,78)           111.54           calculate D2E/DX2 analytically  !
 ! A56   A(13,14,79)           112.6753         calculate D2E/DX2 analytically  !
 ! A57   A(13,14,80)           109.223          calculate D2E/DX2 analytically  !
 ! A58   A(78,14,79)           108.5341         calculate D2E/DX2 analytically  !
 ! A59   A(78,14,80)           106.9808         calculate D2E/DX2 analytically  !
 ! A60   A(79,14,80)           107.658          calculate D2E/DX2 analytically  !
 ! A61   A(13,15,75)           112.3448         calculate D2E/DX2 analytically  !
 ! A62   A(13,15,76)           110.7875         calculate D2E/DX2 analytically  !
 ! A63   A(13,15,77)           109.8765         calculate D2E/DX2 analytically  !
 ! A64   A(75,15,76)           108.1584         calculate D2E/DX2 analytically  !
 ! A65   A(75,15,77)           107.9048         calculate D2E/DX2 analytically  !
 ! A66   A(76,15,77)           107.6073         calculate D2E/DX2 analytically  !
 ! A67   A(9,16,39)            108.2006         calculate D2E/DX2 analytically  !
 ! A68   A(9,16,41)            104.383          calculate D2E/DX2 analytically  !
 ! A69   A(9,16,92)            107.6471         calculate D2E/DX2 analytically  !
 ! A70   A(39,16,41)           114.0144         calculate D2E/DX2 analytically  !
 ! A71   A(39,16,92)           111.1676         calculate D2E/DX2 analytically  !
 ! A72   A(41,16,92)           110.9761         calculate D2E/DX2 analytically  !
 ! A73   A(10,17,26)           116.8831         calculate D2E/DX2 analytically  !
 ! A74   A(39,18,103)          106.9302         calculate D2E/DX2 analytically  !
 ! A75   A(38,19,103)          106.6886         calculate D2E/DX2 analytically  !
 ! A76   A(27,20,103)          102.3394         calculate D2E/DX2 analytically  !
 ! A77   A(24,22,28)           118.5348         calculate D2E/DX2 analytically  !
 ! A78   A(24,22,38)           116.8152         calculate D2E/DX2 analytically  !
 ! A79   A(28,22,38)           121.8598         calculate D2E/DX2 analytically  !
 ! A80   A(25,23,29)           118.4597         calculate D2E/DX2 analytically  !
 ! A81   A(25,23,39)           116.7717         calculate D2E/DX2 analytically  !
 ! A82   A(29,23,39)           121.9602         calculate D2E/DX2 analytically  !
 ! A83   A(22,24,26)           107.8644         calculate D2E/DX2 analytically  !
 ! A84   A(22,24,30)           114.3142         calculate D2E/DX2 analytically  !
 ! A85   A(22,24,65)           105.1732         calculate D2E/DX2 analytically  !
 ! A86   A(26,24,30)           115.7675         calculate D2E/DX2 analytically  !
 ! A87   A(26,24,65)           105.2066         calculate D2E/DX2 analytically  !
 ! A88   A(30,24,65)           107.604          calculate D2E/DX2 analytically  !
 ! A89   A(23,25,27)           107.7665         calculate D2E/DX2 analytically  !
 ! A90   A(23,25,31)           114.4646         calculate D2E/DX2 analytically  !
 ! A91   A(23,25,46)           105.0882         calculate D2E/DX2 analytically  !
 ! A92   A(27,25,31)           115.7914         calculate D2E/DX2 analytically  !
 ! A93   A(27,25,46)           105.2471         calculate D2E/DX2 analytically  !
 ! A94   A(31,25,46)           107.554          calculate D2E/DX2 analytically  !
 ! A95   A(17,26,21)           123.1016         calculate D2E/DX2 analytically  !
 ! A96   A(17,26,24)           113.5565         calculate D2E/DX2 analytically  !
 ! A97   A(21,26,24)           123.2473         calculate D2E/DX2 analytically  !
 ! A98   A(20,27,25)           123.195          calculate D2E/DX2 analytically  !
 ! A99   A(20,27,36)           123.0584         calculate D2E/DX2 analytically  !
 ! A100  A(25,27,36)           113.6527         calculate D2E/DX2 analytically  !
 ! A101  A(22,28,62)           111.6338         calculate D2E/DX2 analytically  !
 ! A102  A(22,28,63)           110.599          calculate D2E/DX2 analytically  !
 ! A103  A(22,28,64)           108.5193         calculate D2E/DX2 analytically  !
 ! A104  A(62,28,63)           110.1326         calculate D2E/DX2 analytically  !
 ! A105  A(62,28,64)           107.6489         calculate D2E/DX2 analytically  !
 ! A106  A(63,28,64)           108.1843         calculate D2E/DX2 analytically  !
 ! A107  A(23,29,100)          108.5185         calculate D2E/DX2 analytically  !
 ! A108  A(23,29,101)          111.4618         calculate D2E/DX2 analytically  !
 ! A109  A(23,29,102)          110.7242         calculate D2E/DX2 analytically  !
 ! A110  A(100,29,101)         107.6205         calculate D2E/DX2 analytically  !
 ! A111  A(100,29,102)         108.2412         calculate D2E/DX2 analytically  !
 ! A112  A(101,29,102)         110.1537         calculate D2E/DX2 analytically  !
 ! A113  A(24,30,32)           111.704          calculate D2E/DX2 analytically  !
 ! A114  A(24,30,34)           110.8866         calculate D2E/DX2 analytically  !
 ! A115  A(24,30,66)           108.8195         calculate D2E/DX2 analytically  !
 ! A116  A(32,30,34)           108.3416         calculate D2E/DX2 analytically  !
 ! A117  A(32,30,66)           108.6741         calculate D2E/DX2 analytically  !
 ! A118  A(34,30,66)           108.3332         calculate D2E/DX2 analytically  !
 ! A119  A(25,31,33)           111.6462         calculate D2E/DX2 analytically  !
 ! A120  A(25,31,35)           110.8062         calculate D2E/DX2 analytically  !
 ! A121  A(25,31,47)           108.8723         calculate D2E/DX2 analytically  !
 ! A122  A(33,31,35)           108.3904         calculate D2E/DX2 analytically  !
 ! A123  A(33,31,47)           108.7056         calculate D2E/DX2 analytically  !
 ! A124  A(35,31,47)           108.342          calculate D2E/DX2 analytically  !
 ! A125  A(30,32,70)           110.7494         calculate D2E/DX2 analytically  !
 ! A126  A(30,32,71)           113.517          calculate D2E/DX2 analytically  !
 ! A127  A(30,32,72)           109.2481         calculate D2E/DX2 analytically  !
 ! A128  A(70,32,71)           108.1571         calculate D2E/DX2 analytically  !
 ! A129  A(70,32,72)           107.4334         calculate D2E/DX2 analytically  !
 ! A130  A(71,32,72)           107.512          calculate D2E/DX2 analytically  !
 ! A131  A(31,33,51)           109.2831         calculate D2E/DX2 analytically  !
 ! A132  A(31,33,52)           110.7198         calculate D2E/DX2 analytically  !
 ! A133  A(31,33,53)           113.4367         calculate D2E/DX2 analytically  !
 ! A134  A(51,33,52)           107.4697         calculate D2E/DX2 analytically  !
 ! A135  A(51,33,53)           107.498          calculate D2E/DX2 analytically  !
 ! A136  A(52,33,53)           108.2161         calculate D2E/DX2 analytically  !
 ! A137  A(30,34,67)           109.5599         calculate D2E/DX2 analytically  !
 ! A138  A(30,34,68)           112.8285         calculate D2E/DX2 analytically  !
 ! A139  A(30,34,69)           110.3206         calculate D2E/DX2 analytically  !
 ! A140  A(67,34,68)           108.3255         calculate D2E/DX2 analytically  !
 ! A141  A(67,34,69)           107.6277         calculate D2E/DX2 analytically  !
 ! A142  A(68,34,69)           108.0204         calculate D2E/DX2 analytically  !
 ! A143  A(31,35,48)           112.8243         calculate D2E/DX2 analytically  !
 ! A144  A(31,35,49)           110.2864         calculate D2E/DX2 analytically  !
 ! A145  A(31,35,50)           109.5828         calculate D2E/DX2 analytically  !
 ! A146  A(48,35,49)           108.0425         calculate D2E/DX2 analytically  !
 ! A147  A(48,35,50)           108.3235         calculate D2E/DX2 analytically  !
 ! A148  A(49,35,50)           107.6237         calculate D2E/DX2 analytically  !
 ! A149  A(27,36,37)           116.8046         calculate D2E/DX2 analytically  !
 ! A150  A(36,37,38)           108.4555         calculate D2E/DX2 analytically  !
 ! A151  A(36,37,40)           104.4117         calculate D2E/DX2 analytically  !
 ! A152  A(36,37,54)           107.5653         calculate D2E/DX2 analytically  !
 ! A153  A(38,37,40)           113.8126         calculate D2E/DX2 analytically  !
 ! A154  A(38,37,54)           111.1829         calculate D2E/DX2 analytically  !
 ! A155  A(40,37,54)           110.9758         calculate D2E/DX2 analytically  !
 ! A156  A(19,38,22)           122.2127         calculate D2E/DX2 analytically  !
 ! A157  A(19,38,37)           119.5014         calculate D2E/DX2 analytically  !
 ! A158  A(22,38,37)           118.214          calculate D2E/DX2 analytically  !
 ! A159  A(16,39,18)           119.4258         calculate D2E/DX2 analytically  !
 ! A160  A(16,39,23)           118.3476         calculate D2E/DX2 analytically  !
 ! A161  A(18,39,23)           122.1735         calculate D2E/DX2 analytically  !
 ! A162  A(37,40,42)           113.1495         calculate D2E/DX2 analytically  !
 ! A163  A(37,40,44)           110.3299         calculate D2E/DX2 analytically  !
 ! A164  A(37,40,55)           105.7103         calculate D2E/DX2 analytically  !
 ! A165  A(42,40,44)           110.0707         calculate D2E/DX2 analytically  !
 ! A166  A(42,40,55)           108.2872         calculate D2E/DX2 analytically  !
 ! A167  A(44,40,55)           109.1212         calculate D2E/DX2 analytically  !
 ! A168  A(16,41,43)           113.1595         calculate D2E/DX2 analytically  !
 ! A169  A(16,41,45)           110.3489         calculate D2E/DX2 analytically  !
 ! A170  A(16,41,93)           105.7783         calculate D2E/DX2 analytically  !
 ! A171  A(43,41,45)           109.9586         calculate D2E/DX2 analytically  !
 ! A172  A(43,41,93)           108.3331         calculate D2E/DX2 analytically  !
 ! A173  A(45,41,93)           109.0973         calculate D2E/DX2 analytically  !
 ! A174  A(40,42,59)           111.5806         calculate D2E/DX2 analytically  !
 ! A175  A(40,42,60)           112.6639         calculate D2E/DX2 analytically  !
 ! A176  A(40,42,61)           109.2046         calculate D2E/DX2 analytically  !
 ! A177  A(59,42,60)           108.5413         calculate D2E/DX2 analytically  !
 ! A178  A(59,42,61)           106.9605         calculate D2E/DX2 analytically  !
 ! A179  A(60,42,61)           107.6584         calculate D2E/DX2 analytically  !
 ! A180  A(41,43,97)           112.7046         calculate D2E/DX2 analytically  !
 ! A181  A(41,43,98)           109.2139         calculate D2E/DX2 analytically  !
 ! A182  A(41,43,99)           111.4558         calculate D2E/DX2 analytically  !
 ! A183  A(97,43,98)           107.648          calculate D2E/DX2 analytically  !
 ! A184  A(97,43,99)           108.6414         calculate D2E/DX2 analytically  !
 ! A185  A(98,43,99)           106.9464         calculate D2E/DX2 analytically  !
 ! A186  A(40,44,56)           109.8978         calculate D2E/DX2 analytically  !
 ! A187  A(40,44,57)           112.3209         calculate D2E/DX2 analytically  !
 ! A188  A(40,44,58)           110.7288         calculate D2E/DX2 analytically  !
 ! A189  A(56,44,57)           107.9386         calculate D2E/DX2 analytically  !
 ! A190  A(56,44,58)           107.6291         calculate D2E/DX2 analytically  !
 ! A191  A(57,44,58)           108.1681         calculate D2E/DX2 analytically  !
 ! A192  A(41,45,94)           110.7128         calculate D2E/DX2 analytically  !
 ! A193  A(41,45,95)           109.8572         calculate D2E/DX2 analytically  !
 ! A194  A(41,45,96)           112.3459         calculate D2E/DX2 analytically  !
 ! A195  A(94,45,95)           107.6426         calculate D2E/DX2 analytically  !
 ! A196  A(94,45,96)           108.1722         calculate D2E/DX2 analytically  !
 ! A197  A(95,45,96)           107.9536         calculate D2E/DX2 analytically  !
 ! A198  A(4,103,12)            86.0292         calculate D2E/DX2 analytically  !
 ! A199  A(4,103,18)            75.0096         calculate D2E/DX2 analytically  !
 ! A200  A(4,103,19)           154.922          calculate D2E/DX2 analytically  !
 ! A201  A(4,103,20)            81.6851         calculate D2E/DX2 analytically  !
 ! A202  A(12,103,18)          111.6523         calculate D2E/DX2 analytically  !
 ! A203  A(12,103,19)          110.9435         calculate D2E/DX2 analytically  !
 ! A204  A(12,103,20)          155.2266         calculate D2E/DX2 analytically  !
 ! A205  A(18,103,19)          112.8662         calculate D2E/DX2 analytically  !
 ! A206  A(18,103,20)           85.8455         calculate D2E/DX2 analytically  !
 ! A207  A(19,103,20)           75.4376         calculate D2E/DX2 analytically  !
 ! D1    D(5,1,2,3)             73.4582         calculate D2E/DX2 analytically  !
 ! D2    D(5,1,2,6)            -56.9835         calculate D2E/DX2 analytically  !
 ! D3    D(5,1,2,91)          -174.8205         calculate D2E/DX2 analytically  !
 ! D4    D(11,1,2,3)           -88.0558         calculate D2E/DX2 analytically  !
 ! D5    D(11,1,2,6)           141.5025         calculate D2E/DX2 analytically  !
 ! D6    D(11,1,2,91)           23.6655         calculate D2E/DX2 analytically  !
 ! D7    D(2,1,5,81)          -105.7753         calculate D2E/DX2 analytically  !
 ! D8    D(2,1,5,82)            12.8789         calculate D2E/DX2 analytically  !
 ! D9    D(2,1,5,83)           131.2637         calculate D2E/DX2 analytically  !
 ! D10   D(11,1,5,81)           54.7544         calculate D2E/DX2 analytically  !
 ! D11   D(11,1,5,82)          173.4086         calculate D2E/DX2 analytically  !
 ! D12   D(11,1,5,83)          -68.2066         calculate D2E/DX2 analytically  !
 ! D13   D(2,1,11,10)         -175.6617         calculate D2E/DX2 analytically  !
 ! D14   D(2,1,11,12)            1.4263         calculate D2E/DX2 analytically  !
 ! D15   D(5,1,11,10)           23.5122         calculate D2E/DX2 analytically  !
 ! D16   D(5,1,11,12)         -159.3997         calculate D2E/DX2 analytically  !
 ! D17   D(1,2,3,4)              6.4774         calculate D2E/DX2 analytically  !
 ! D18   D(1,2,3,9)           -176.9851         calculate D2E/DX2 analytically  !
 ! D19   D(6,2,3,4)            136.2229         calculate D2E/DX2 analytically  !
 ! D20   D(6,2,3,9)            -47.2396         calculate D2E/DX2 analytically  !
 ! D21   D(91,2,3,4)          -105.1781         calculate D2E/DX2 analytically  !
 ! D22   D(91,2,3,9)            71.3594         calculate D2E/DX2 analytically  !
 ! D23   D(1,2,6,7)            -35.6147         calculate D2E/DX2 analytically  !
 ! D24   D(1,2,6,8)           -156.568          calculate D2E/DX2 analytically  !
 ! D25   D(1,2,6,90)            84.403          calculate D2E/DX2 analytically  !
 ! D26   D(3,2,6,7)           -162.0216         calculate D2E/DX2 analytically  !
 ! D27   D(3,2,6,8)             77.025          calculate D2E/DX2 analytically  !
 ! D28   D(3,2,6,90)           -42.0039         calculate D2E/DX2 analytically  !
 ! D29   D(91,2,6,7)            80.7511         calculate D2E/DX2 analytically  !
 ! D30   D(91,2,6,8)           -40.2022         calculate D2E/DX2 analytically  !
 ! D31   D(91,2,6,90)         -159.2312         calculate D2E/DX2 analytically  !
 ! D32   D(2,3,4,103)           78.0045         calculate D2E/DX2 analytically  !
 ! D33   D(9,3,4,103)          -98.2077         calculate D2E/DX2 analytically  !
 ! D34   D(2,3,9,16)          -172.9473         calculate D2E/DX2 analytically  !
 ! D35   D(4,3,9,16)             3.5947         calculate D2E/DX2 analytically  !
 ! D36   D(3,4,103,12)         -54.4521         calculate D2E/DX2 analytically  !
 ! D37   D(3,4,103,18)          59.2185         calculate D2E/DX2 analytically  !
 ! D38   D(3,4,103,19)         171.359          calculate D2E/DX2 analytically  !
 ! D39   D(3,4,103,20)         147.1175         calculate D2E/DX2 analytically  !
 ! D40   D(2,6,7,87)            62.923          calculate D2E/DX2 analytically  !
 ! D41   D(2,6,7,88)          -177.1294         calculate D2E/DX2 analytically  !
 ! D42   D(2,6,7,89)           -59.0            calculate D2E/DX2 analytically  !
 ! D43   D(8,6,7,87)          -174.7474         calculate D2E/DX2 analytically  !
 ! D44   D(8,6,7,88)           -54.7999         calculate D2E/DX2 analytically  !
 ! D45   D(8,6,7,89)            63.3295         calculate D2E/DX2 analytically  !
 ! D46   D(90,6,7,87)          -57.1983         calculate D2E/DX2 analytically  !
 ! D47   D(90,6,7,88)           62.7493         calculate D2E/DX2 analytically  !
 ! D48   D(90,6,7,89)         -179.1213         calculate D2E/DX2 analytically  !
 ! D49   D(2,6,8,84)            64.222          calculate D2E/DX2 analytically  !
 ! D50   D(2,6,8,85)          -177.4784         calculate D2E/DX2 analytically  !
 ! D51   D(2,6,8,86)           -56.6762         calculate D2E/DX2 analytically  !
 ! D52   D(7,6,8,84)           -58.7643         calculate D2E/DX2 analytically  !
 ! D53   D(7,6,8,85)            59.5353         calculate D2E/DX2 analytically  !
 ! D54   D(7,6,8,86)          -179.6624         calculate D2E/DX2 analytically  !
 ! D55   D(90,6,8,84)         -176.4827         calculate D2E/DX2 analytically  !
 ! D56   D(90,6,8,85)          -58.1831         calculate D2E/DX2 analytically  !
 ! D57   D(90,6,8,86)           62.6192         calculate D2E/DX2 analytically  !
 ! D58   D(3,9,16,39)           57.5488         calculate D2E/DX2 analytically  !
 ! D59   D(3,9,16,41)          179.3233         calculate D2E/DX2 analytically  !
 ! D60   D(3,9,16,92)          -62.682          calculate D2E/DX2 analytically  !
 ! D61   D(13,10,11,1)          92.5888         calculate D2E/DX2 analytically  !
 ! D62   D(13,10,11,12)        -84.5825         calculate D2E/DX2 analytically  !
 ! D63   D(17,10,11,1)        -151.6763         calculate D2E/DX2 analytically  !
 ! D64   D(17,10,11,12)         31.1524         calculate D2E/DX2 analytically  !
 ! D65   D(73,10,11,1)         -33.6329         calculate D2E/DX2 analytically  !
 ! D66   D(73,10,11,12)        149.1958         calculate D2E/DX2 analytically  !
 ! D67   D(11,10,13,14)        -55.5097         calculate D2E/DX2 analytically  !
 ! D68   D(11,10,13,15)       -179.3233         calculate D2E/DX2 analytically  !
 ! D69   D(11,10,13,74)         62.8313         calculate D2E/DX2 analytically  !
 ! D70   D(17,10,13,14)       -173.569          calculate D2E/DX2 analytically  !
 ! D71   D(17,10,13,15)         62.6174         calculate D2E/DX2 analytically  !
 ! D72   D(17,10,13,74)        -55.228          calculate D2E/DX2 analytically  !
 ! D73   D(73,10,13,14)         70.7535         calculate D2E/DX2 analytically  !
 ! D74   D(73,10,13,15)        -53.0601         calculate D2E/DX2 analytically  !
 ! D75   D(73,10,13,74)       -170.9055         calculate D2E/DX2 analytically  !
 ! D76   D(11,10,17,26)         57.2932         calculate D2E/DX2 analytically  !
 ! D77   D(13,10,17,26)        179.0085         calculate D2E/DX2 analytically  !
 ! D78   D(73,10,17,26)        -62.951          calculate D2E/DX2 analytically  !
 ! D79   D(1,11,12,103)         79.6119         calculate D2E/DX2 analytically  !
 ! D80   D(10,11,12,103)      -103.3385         calculate D2E/DX2 analytically  !
 ! D81   D(11,12,103,4)        -40.9495         calculate D2E/DX2 analytically  !
 ! D82   D(11,12,103,18)      -113.0998         calculate D2E/DX2 analytically  !
 ! D83   D(11,12,103,19)       120.0595         calculate D2E/DX2 analytically  !
 ! D84   D(11,12,103,20)        19.2913         calculate D2E/DX2 analytically  !
 ! D85   D(10,13,14,78)        -64.6492         calculate D2E/DX2 analytically  !
 ! D86   D(10,13,14,79)         57.7134         calculate D2E/DX2 analytically  !
 ! D87   D(10,13,14,80)        177.3067         calculate D2E/DX2 analytically  !
 ! D88   D(15,13,14,78)         59.3708         calculate D2E/DX2 analytically  !
 ! D89   D(15,13,14,79)       -178.2666         calculate D2E/DX2 analytically  !
 ! D90   D(15,13,14,80)        -58.6734         calculate D2E/DX2 analytically  !
 ! D91   D(74,13,14,78)        178.5317         calculate D2E/DX2 analytically  !
 ! D92   D(74,13,14,79)        -59.1056         calculate D2E/DX2 analytically  !
 ! D93   D(74,13,14,80)         60.4876         calculate D2E/DX2 analytically  !
 ! D94   D(10,13,15,75)        -56.2115         calculate D2E/DX2 analytically  !
 ! D95   D(10,13,15,76)         64.8826         calculate D2E/DX2 analytically  !
 ! D96   D(10,13,15,77)       -176.3476         calculate D2E/DX2 analytically  !
 ! D97   D(14,13,15,75)        178.2056         calculate D2E/DX2 analytically  !
 ! D98   D(14,13,15,76)        -60.7003         calculate D2E/DX2 analytically  !
 ! D99   D(14,13,15,77)         58.0695         calculate D2E/DX2 analytically  !
 ! D100  D(74,13,15,75)         59.5295         calculate D2E/DX2 analytically  !
 ! D101  D(74,13,15,76)       -179.3764         calculate D2E/DX2 analytically  !
 ! D102  D(74,13,15,77)        -60.6066         calculate D2E/DX2 analytically  !
 ! D103  D(9,16,39,18)          29.5272         calculate D2E/DX2 analytically  !
 ! D104  D(9,16,39,23)        -153.0637         calculate D2E/DX2 analytically  !
 ! D105  D(41,16,39,18)        -86.115          calculate D2E/DX2 analytically  !
 ! D106  D(41,16,39,23)         91.2941         calculate D2E/DX2 analytically  !
 ! D107  D(92,16,39,18)        147.5308         calculate D2E/DX2 analytically  !
 ! D108  D(92,16,39,23)        -35.0601         calculate D2E/DX2 analytically  !
 ! D109  D(9,16,41,43)        -175.2514         calculate D2E/DX2 analytically  !
 ! D110  D(9,16,41,45)          61.0639         calculate D2E/DX2 analytically  !
 ! D111  D(9,16,41,93)         -56.8025         calculate D2E/DX2 analytically  !
 ! D112  D(39,16,41,43)        -57.395          calculate D2E/DX2 analytically  !
 ! D113  D(39,16,41,45)        178.9204         calculate D2E/DX2 analytically  !
 ! D114  D(39,16,41,93)         61.054          calculate D2E/DX2 analytically  !
 ! D115  D(92,16,41,43)         69.0593         calculate D2E/DX2 analytically  !
 ! D116  D(92,16,41,45)        -54.6254         calculate D2E/DX2 analytically  !
 ! D117  D(92,16,41,93)       -172.4918         calculate D2E/DX2 analytically  !
 ! D118  D(10,17,26,21)          3.0344         calculate D2E/DX2 analytically  !
 ! D119  D(10,17,26,24)       -173.5303         calculate D2E/DX2 analytically  !
 ! D120  D(103,18,39,16)      -102.8313         calculate D2E/DX2 analytically  !
 ! D121  D(103,18,39,23)        79.8626         calculate D2E/DX2 analytically  !
 ! D122  D(39,18,103,4)         41.571          calculate D2E/DX2 analytically  !
 ! D123  D(39,18,103,12)       121.0013         calculate D2E/DX2 analytically  !
 ! D124  D(39,18,103,19)      -113.2099         calculate D2E/DX2 analytically  !
 ! D125  D(39,18,103,20)       -40.9217         calculate D2E/DX2 analytically  !
 ! D126  D(103,19,38,22)        80.367          calculate D2E/DX2 analytically  !
 ! D127  D(103,19,38,37)      -102.7725         calculate D2E/DX2 analytically  !
 ! D128  D(38,19,103,4)         15.4128         calculate D2E/DX2 analytically  !
 ! D129  D(38,19,103,12)      -114.5977         calculate D2E/DX2 analytically  !
 ! D130  D(38,19,103,18)       119.2329         calculate D2E/DX2 analytically  !
 ! D131  D(38,19,103,20)        40.2317         calculate D2E/DX2 analytically  !
 ! D132  D(103,20,27,25)        78.6695         calculate D2E/DX2 analytically  !
 ! D133  D(103,20,27,36)       -97.5816         calculate D2E/DX2 analytically  !
 ! D134  D(27,20,103,4)       -130.1566         calculate D2E/DX2 analytically  !
 ! D135  D(27,20,103,12)       168.7706         calculate D2E/DX2 analytically  !
 ! D136  D(27,20,103,18)       -54.7216         calculate D2E/DX2 analytically  !
 ! D137  D(27,20,103,19)        60.2017         calculate D2E/DX2 analytically  !
 ! D138  D(28,22,24,26)         74.0353         calculate D2E/DX2 analytically  !
 ! D139  D(28,22,24,30)        -56.267          calculate D2E/DX2 analytically  !
 ! D140  D(28,22,24,65)       -174.0671         calculate D2E/DX2 analytically  !
 ! D141  D(38,22,24,26)        -87.4183         calculate D2E/DX2 analytically  !
 ! D142  D(38,22,24,30)        142.2794         calculate D2E/DX2 analytically  !
 ! D143  D(38,22,24,65)         24.4793         calculate D2E/DX2 analytically  !
 ! D144  D(24,22,28,62)        130.1914         calculate D2E/DX2 analytically  !
 ! D145  D(24,22,28,63)       -106.8088         calculate D2E/DX2 analytically  !
 ! D146  D(24,22,28,64)         11.7132         calculate D2E/DX2 analytically  !
 ! D147  D(38,22,28,62)        -69.3339         calculate D2E/DX2 analytically  !
 ! D148  D(38,22,28,63)         53.6659         calculate D2E/DX2 analytically  !
 ! D149  D(38,22,28,64)        172.188          calculate D2E/DX2 analytically  !
 ! D150  D(24,22,38,19)          2.2953         calculate D2E/DX2 analytically  !
 ! D151  D(24,22,38,37)       -174.6038         calculate D2E/DX2 analytically  !
 ! D152  D(28,22,38,19)       -158.4964         calculate D2E/DX2 analytically  !
 ! D153  D(28,22,38,37)         24.6044         calculate D2E/DX2 analytically  !
 ! D154  D(29,23,25,27)         73.8391         calculate D2E/DX2 analytically  !
 ! D155  D(29,23,25,31)        -56.5321         calculate D2E/DX2 analytically  !
 ! D156  D(29,23,25,46)       -174.2973         calculate D2E/DX2 analytically  !
 ! D157  D(39,23,25,27)        -87.5754         calculate D2E/DX2 analytically  !
 ! D158  D(39,23,25,31)        142.0533         calculate D2E/DX2 analytically  !
 ! D159  D(39,23,25,46)         24.2882         calculate D2E/DX2 analytically  !
 ! D160  D(25,23,29,100)        13.1187         calculate D2E/DX2 analytically  !
 ! D161  D(25,23,29,101)       131.4593         calculate D2E/DX2 analytically  !
 ! D162  D(25,23,29,102)      -105.5457         calculate D2E/DX2 analytically  !
 ! D163  D(39,23,29,100)       173.5222         calculate D2E/DX2 analytically  !
 ! D164  D(39,23,29,101)       -68.1373         calculate D2E/DX2 analytically  !
 ! D165  D(39,23,29,102)        54.8577         calculate D2E/DX2 analytically  !
 ! D166  D(25,23,39,16)       -175.9821         calculate D2E/DX2 analytically  !
 ! D167  D(25,23,39,18)          1.3518         calculate D2E/DX2 analytically  !
 ! D168  D(29,23,39,16)         23.3028         calculate D2E/DX2 analytically  !
 ! D169  D(29,23,39,18)       -159.3633         calculate D2E/DX2 analytically  !
 ! D170  D(22,24,26,17)       -178.7524         calculate D2E/DX2 analytically  !
 ! D171  D(22,24,26,21)          4.6886         calculate D2E/DX2 analytically  !
 ! D172  D(30,24,26,17)        -49.2622         calculate D2E/DX2 analytically  !
 ! D173  D(30,24,26,21)        134.1788         calculate D2E/DX2 analytically  !
 ! D174  D(65,24,26,17)         69.3727         calculate D2E/DX2 analytically  !
 ! D175  D(65,24,26,21)       -107.1864         calculate D2E/DX2 analytically  !
 ! D176  D(22,24,30,32)        -36.7515         calculate D2E/DX2 analytically  !
 ! D177  D(22,24,30,34)       -157.7089         calculate D2E/DX2 analytically  !
 ! D178  D(22,24,30,66)         83.2307         calculate D2E/DX2 analytically  !
 ! D179  D(26,24,30,32)       -163.0429         calculate D2E/DX2 analytically  !
 ! D180  D(26,24,30,34)         75.9997         calculate D2E/DX2 analytically  !
 ! D181  D(26,24,30,66)        -43.0607         calculate D2E/DX2 analytically  !
 ! D182  D(65,24,30,32)         79.6515         calculate D2E/DX2 analytically  !
 ! D183  D(65,24,30,34)        -41.3059         calculate D2E/DX2 analytically  !
 ! D184  D(65,24,30,66)       -160.3663         calculate D2E/DX2 analytically  !
 ! D185  D(23,25,27,20)          5.7972         calculate D2E/DX2 analytically  !
 ! D186  D(23,25,27,36)       -177.6327         calculate D2E/DX2 analytically  !
 ! D187  D(31,25,27,20)        135.4268         calculate D2E/DX2 analytically  !
 ! D188  D(31,25,27,36)        -48.003          calculate D2E/DX2 analytically  !
 ! D189  D(46,25,27,20)       -105.9588         calculate D2E/DX2 analytically  !
 ! D190  D(46,25,27,36)         70.6114         calculate D2E/DX2 analytically  !
 ! D191  D(23,25,31,33)        -36.2158         calculate D2E/DX2 analytically  !
 ! D192  D(23,25,31,35)       -157.1402         calculate D2E/DX2 analytically  !
 ! D193  D(23,25,31,47)         83.8041         calculate D2E/DX2 analytically  !
 ! D194  D(27,25,31,33)       -162.5283         calculate D2E/DX2 analytically  !
 ! D195  D(27,25,31,35)         76.5472         calculate D2E/DX2 analytically  !
 ! D196  D(27,25,31,47)        -42.5084         calculate D2E/DX2 analytically  !
 ! D197  D(46,25,31,33)         80.1357         calculate D2E/DX2 analytically  !
 ! D198  D(46,25,31,35)        -40.7888         calculate D2E/DX2 analytically  !
 ! D199  D(46,25,31,47)       -159.8444         calculate D2E/DX2 analytically  !
 ! D200  D(20,27,36,37)          2.9363         calculate D2E/DX2 analytically  !
 ! D201  D(25,27,36,37)       -173.6392         calculate D2E/DX2 analytically  !
 ! D202  D(24,30,32,70)        -58.593          calculate D2E/DX2 analytically  !
 ! D203  D(24,30,32,71)         63.2968         calculate D2E/DX2 analytically  !
 ! D204  D(24,30,32,72)       -176.7334         calculate D2E/DX2 analytically  !
 ! D205  D(34,30,32,70)         63.8336         calculate D2E/DX2 analytically  !
 ! D206  D(34,30,32,71)       -174.2766         calculate D2E/DX2 analytically  !
 ! D207  D(34,30,32,72)        -54.3069         calculate D2E/DX2 analytically  !
 ! D208  D(66,30,32,70)       -178.6606         calculate D2E/DX2 analytically  !
 ! D209  D(66,30,32,71)        -56.7708         calculate D2E/DX2 analytically  !
 ! D210  D(66,30,32,72)         63.199          calculate D2E/DX2 analytically  !
 ! D211  D(24,30,34,67)       -177.7629         calculate D2E/DX2 analytically  !
 ! D212  D(24,30,34,68)        -56.9932         calculate D2E/DX2 analytically  !
 ! D213  D(24,30,34,69)         63.9247         calculate D2E/DX2 analytically  !
 ! D214  D(32,30,34,67)         59.3138         calculate D2E/DX2 analytically  !
 ! D215  D(32,30,34,68)       -179.9165         calculate D2E/DX2 analytically  !
 ! D216  D(32,30,34,69)        -58.9986         calculate D2E/DX2 analytically  !
 ! D217  D(66,30,34,67)        -58.4101         calculate D2E/DX2 analytically  !
 ! D218  D(66,30,34,68)         62.3596         calculate D2E/DX2 analytically  !
 ! D219  D(66,30,34,69)       -176.7226         calculate D2E/DX2 analytically  !
 ! D220  D(25,31,33,51)       -176.3651         calculate D2E/DX2 analytically  !
 ! D221  D(25,31,33,52)        -58.1763         calculate D2E/DX2 analytically  !
 ! D222  D(25,31,33,53)         63.7108         calculate D2E/DX2 analytically  !
 ! D223  D(35,31,33,51)        -54.0436         calculate D2E/DX2 analytically  !
 ! D224  D(35,31,33,52)         64.1451         calculate D2E/DX2 analytically  !
 ! D225  D(35,31,33,53)       -173.9678         calculate D2E/DX2 analytically  !
 ! D226  D(47,31,33,51)         63.5171         calculate D2E/DX2 analytically  !
 ! D227  D(47,31,33,52)       -178.2942         calculate D2E/DX2 analytically  !
 ! D228  D(47,31,33,53)        -56.4071         calculate D2E/DX2 analytically  !
 ! D229  D(25,31,35,48)        -56.871          calculate D2E/DX2 analytically  !
 ! D230  D(25,31,35,49)         64.0478         calculate D2E/DX2 analytically  !
 ! D231  D(25,31,35,50)       -177.6514         calculate D2E/DX2 analytically  !
 ! D232  D(33,31,35,48)       -179.7031         calculate D2E/DX2 analytically  !
 ! D233  D(33,31,35,49)        -58.7843         calculate D2E/DX2 analytically  !
 ! D234  D(33,31,35,50)         59.5165         calculate D2E/DX2 analytically  !
 ! D235  D(47,31,35,48)         62.504          calculate D2E/DX2 analytically  !
 ! D236  D(47,31,35,49)       -176.5773         calculate D2E/DX2 analytically  !
 ! D237  D(47,31,35,50)        -58.2764         calculate D2E/DX2 analytically  !
 ! D238  D(27,36,37,38)         57.4598         calculate D2E/DX2 analytically  !
 ! D239  D(27,36,37,40)        179.1434         calculate D2E/DX2 analytically  !
 ! D240  D(27,36,37,54)        -62.8856         calculate D2E/DX2 analytically  !
 ! D241  D(36,37,38,19)         31.0242         calculate D2E/DX2 analytically  !
 ! D242  D(36,37,38,22)       -151.9901         calculate D2E/DX2 analytically  !
 ! D243  D(40,37,38,19)        -84.7025         calculate D2E/DX2 analytically  !
 ! D244  D(40,37,38,22)         92.2832         calculate D2E/DX2 analytically  !
 ! D245  D(54,37,38,19)        149.0936         calculate D2E/DX2 analytically  !
 ! D246  D(54,37,38,22)        -33.9207         calculate D2E/DX2 analytically  !
 ! D247  D(36,37,40,42)       -173.8273         calculate D2E/DX2 analytically  !
 ! D248  D(36,37,40,44)         62.363          calculate D2E/DX2 analytically  !
 ! D249  D(36,37,40,55)        -55.4833         calculate D2E/DX2 analytically  !
 ! D250  D(38,37,40,42)        -55.7492         calculate D2E/DX2 analytically  !
 ! D251  D(38,37,40,44)       -179.5589         calculate D2E/DX2 analytically  !
 ! D252  D(38,37,40,55)         62.5948         calculate D2E/DX2 analytically  !
 ! D253  D(54,37,40,42)         70.5635         calculate D2E/DX2 analytically  !
 ! D254  D(54,37,40,44)        -53.2462         calculate D2E/DX2 analytically  !
 ! D255  D(54,37,40,55)       -171.0925         calculate D2E/DX2 analytically  !
 ! D256  D(37,40,42,59)        -64.5088         calculate D2E/DX2 analytically  !
 ! D257  D(37,40,42,60)         57.8852         calculate D2E/DX2 analytically  !
 ! D258  D(37,40,42,61)        177.4591         calculate D2E/DX2 analytically  !
 ! D259  D(44,40,42,59)         59.4429         calculate D2E/DX2 analytically  !
 ! D260  D(44,40,42,60)       -178.1631         calculate D2E/DX2 analytically  !
 ! D261  D(44,40,42,61)        -58.5892         calculate D2E/DX2 analytically  !
 ! D262  D(55,40,42,59)        178.6548         calculate D2E/DX2 analytically  !
 ! D263  D(55,40,42,60)        -58.9512         calculate D2E/DX2 analytically  !
 ! D264  D(55,40,42,61)         60.6227         calculate D2E/DX2 analytically  !
 ! D265  D(37,40,44,56)       -176.3508         calculate D2E/DX2 analytically  !
 ! D266  D(37,40,44,57)        -56.1731         calculate D2E/DX2 analytically  !
 ! D267  D(37,40,44,58)         64.8754         calculate D2E/DX2 analytically  !
 ! D268  D(42,40,44,56)         58.0773         calculate D2E/DX2 analytically  !
 ! D269  D(42,40,44,57)        178.255          calculate D2E/DX2 analytically  !
 ! D270  D(42,40,44,58)        -60.6965         calculate D2E/DX2 analytically  !
 ! D271  D(55,40,44,56)        -60.6243         calculate D2E/DX2 analytically  !
 ! D272  D(55,40,44,57)         59.5534         calculate D2E/DX2 analytically  !
 ! D273  D(55,40,44,58)       -179.3981         calculate D2E/DX2 analytically  !
 ! D274  D(16,41,43,97)         56.7467         calculate D2E/DX2 analytically  !
 ! D275  D(16,41,43,98)        176.3398         calculate D2E/DX2 analytically  !
 ! D276  D(16,41,43,99)        -65.715          calculate D2E/DX2 analytically  !
 ! D277  D(45,41,43,97)       -179.3545         calculate D2E/DX2 analytically  !
 ! D278  D(45,41,43,98)        -59.7614         calculate D2E/DX2 analytically  !
 ! D279  D(45,41,43,99)         58.1837         calculate D2E/DX2 analytically  !
 ! D280  D(93,41,43,97)        -60.2092         calculate D2E/DX2 analytically  !
 ! D281  D(93,41,43,98)         59.3839         calculate D2E/DX2 analytically  !
 ! D282  D(93,41,43,99)        177.329          calculate D2E/DX2 analytically  !
 ! D283  D(16,41,45,94)         63.9881         calculate D2E/DX2 analytically  !
 ! D284  D(16,41,45,95)       -177.2569         calculate D2E/DX2 analytically  !
 ! D285  D(16,41,45,96)        -57.0716         calculate D2E/DX2 analytically  !
 ! D286  D(43,41,45,94)        -61.53           calculate D2E/DX2 analytically  !
 ! D287  D(43,41,45,95)         57.225          calculate D2E/DX2 analytically  !
 ! D288  D(43,41,45,96)        177.4103         calculate D2E/DX2 analytically  !
 ! D289  D(93,41,45,94)        179.7935         calculate D2E/DX2 analytically  !
 ! D290  D(93,41,45,95)        -61.4515         calculate D2E/DX2 analytically  !
 ! D291  D(93,41,45,96)         58.7338         calculate D2E/DX2 analytically  !
 --------------------------------------------------------------------------------
 Trust Radius=3.00D-01 FncErr=1.00D-07 GrdErr=1.00D-07
 Number of steps in this run=      2 maximum allowed number of steps=      2.
 GradGradGradGradGradGradGradGradGradGradGradGradGradGradGradGradGradGrad

 Symmetry turned off by external request.
 Stoichiometry    C33H57N3NaO9(1+)
 Framework group  C1[X(C33H57N3NaO9)]
 Deg. of freedom   303
 Full point group                 C1      NOp   1
                          Input orientation:                          
 ---------------------------------------------------------------------
 Center     Atomic      Atomic             Coordinates (Angstroms)
 Number     Number       Type             X           Y           Z
 ---------------------------------------------------------------------
      1          7           0       -3.024407   12.376698   12.344147
      2          6           0       -3.592801   13.606550   11.754295
      3          6           0       -2.798538   14.810263   12.314616
      4          8           0       -1.794845   14.687622   13.018716
      5          6           0       -3.308647   12.080216   13.762189
      6          6           0       -5.154292   13.714418   11.852264
      7          6           0       -5.834459   12.339985   11.696842
      8          6           0       -5.707201   14.657066   10.760288
      9          8           0       -3.263894   16.002793   11.899925
     10          6           0       -1.418458   10.453107   12.213327
     11          6           0       -1.971715   11.799295   11.678722
     12          8           0       -1.487569   12.294326   10.635706
     13          6           0       -2.061432    9.203284   11.552894
     14          6           0       -3.596197    9.180838   11.667721
     15          6           0       -1.467934    7.912883   12.152656
     16          6           0       -2.471661   17.184278   12.256431
     17          8           0        0.002253   10.362826   11.859873
     18          8           0       -0.873797   16.319063   10.649208
     19          8           0        2.294865   13.738556   10.617734
     20          8           0        1.404023   15.419260   12.983596
     21          8           0        0.403177   12.274939   13.010260
     22          7           0        3.018578   12.387187   12.330391
     23          7           0        0.000321   17.631276   12.321223
     24          6           0        2.247507   11.266760   11.751073
     25          6           0        1.335295   17.503975   11.699011
     26          6           0        0.802220   11.352613   12.297314
     27          6           0        1.992429   16.216359   12.250590
     28          6           0        3.418422   12.308872   13.749703
     29          6           0       -0.079702   18.041525   13.737097
     30          6           0        2.943956    9.867610   11.882190
     31          6           0        2.211947   18.802218   11.771265
     32          6           0        4.472511    9.973530   11.712615
     33          6           0        1.356691   20.075177   11.616182
     34          6           0        2.404388    8.882355   10.821940
     35          6           0        3.288062   18.800054   10.662958
     36          8           0        3.241989   16.010944   11.796402
     37          6           0        3.877289   14.739593   12.159776
     38          6           0        2.980647   13.580347   11.653212
     39          6           0       -1.039606   16.996969   11.688716
     40          6           0        5.272267   14.796377   11.479859
     41          6           0       -3.249378   18.373673   11.629904
     42          6           0        6.061955   13.481531   11.608275
     43          6           0       -2.523022   19.721721   11.786713
     44          6           0        6.098184   15.967330   12.048806
     45          6           0       -4.665525   18.465553   12.233043
     46          1           0        1.136420   17.294570   10.630757
     47          1           0        2.723411   18.835180   12.753925
     48          1           0        3.939360   17.915898   10.702932
     49          1           0        2.811214   18.829459    9.665385
     50          1           0        3.919214   19.700588   10.758351
     51          1           0        2.017517   20.959532   11.607113
     52          1           0        0.806432   20.062254   10.657554
     53          1           0        0.627462   20.214931   12.429976
     54          1           0        3.974029   14.717843   13.257946
     55          1           0        5.075050   14.979781   10.405681
     56          1           0        7.061760   16.041450   11.515487
     57          1           0        5.579025   16.933686   11.947385
     58          1           0        6.319988   15.805712   13.120564
     59          1           0        6.309881   13.257242   12.662437
     60          1           0        5.522976   12.619557   11.184172
     61          1           0        7.018262   13.578039   11.066193
     62          1           0        4.490356   12.524543   13.882076
     63          1           0        2.814173   12.998761   14.361534
     64          1           0        3.237815   11.285521   14.107272
     65          1           0        2.164448   11.499454   10.672563
     66          1           0        2.726261    9.452611   12.886477
     67          1           0        2.878893    7.895236   10.959359
     68          1           0        1.314696    8.752407   10.876193
     69          1           0        2.656533    9.236535    9.804885
     70          1           0        4.728269   10.407335   10.728461
     71          1           0        4.960282   10.579906   12.492268
     72          1           0        4.914150    8.962459   11.753281
     73          1           0       -1.492597   10.401918   13.312383
     74          1           0       -1.793841    9.260347   10.479794
     75          1           0       -0.370711    7.874848   12.061705
     76          1           0       -1.728453    7.821887   13.224023
     77          1           0       -1.882322    7.032032   11.632286
     78          1           0       -3.923397    9.097745   12.720822
     79          1           0       -4.068352   10.071512   11.223590
     80          1           0       -3.987257    8.295367   11.137925
     81          1           0       -2.419237   12.271123   14.385516
     82          1           0       -4.116453   12.743345   14.102552
     83          1           0       -3.650315   11.041942   13.896949
     84          1           0       -5.511605   14.236255    9.756197
     85          1           0       -6.800780   14.755078   10.874305
     86          1           0       -5.264240   15.661968   10.800411
     87          1           0       -5.568955   11.626205   12.492812
     88          1           0       -6.930325   12.472051   11.720665
     89          1           0       -5.577282   11.882794   10.723825
     90          1           0       -5.422337   14.132340   12.843125
     91          1           0       -3.327179   13.559522   10.681033
     92          1           0       -2.457399   17.257704   13.356943
     93          1           0       -3.329920   18.144997   10.549258
     94          1           0       -4.616113   18.689983   13.315248
     95          1           0       -5.227653   19.281995   11.747390
     96          1           0       -5.238117   17.533856   12.101215
     97          1           0       -1.507617   19.709881   11.359378
     98          1           0       -3.096730   20.506287   11.264250
     99          1           0       -2.456242   20.024181   12.848439
    100          1           0        0.904889   18.418910   14.047393
    101          1           0       -0.808485   18.854306   13.880441
    102          1           0       -0.337788   17.182374   14.378298
    103         11           0       -0.008004   14.131613   11.352590
 ---------------------------------------------------------------------
 Rotational constants (GHZ):      0.0726058      0.0723789      0.0387156
 General basis read from cards:  (5D, 7F)
   776 basis functions,  1544 primitive gaussians,   824 cartesian basis functions
   179 alpha electrons      179 beta electrons
       nuclear repulsion energy      7092.7444724703 Hartrees.
 NAtoms=  103 NActive=  103 NUniq=  103 SFac= 1.00D+00 NAtFMM=   60 NAOKFM=T Big=T
 Integral buffers will be    131072 words long.
 Raffenetti 2 integral format.
 Two-electron integral symmetry is turned off.
 Force inversion solution in PCM.
 ------------------------------------------------------------------------------
 Polarizable Continuum Model (PCM)
 =================================
 Model                : PCM (using non-symmetric T matrix).
 Atomic radii         : UFF (Universal Force Field).
 Polarization charges : Total charges.
 Charge compensation  : None.
 Solution method      : Matrix inversion.
 Cavity type          : Scaled VdW (van der Waals Surface) (Alpha=1.100).
 Cavity algorithm     : GePol (No added spheres)
                        Default sphere list used, NSphG=  103.
                        Lebedev-Laikov grids with approx.  5.0 points / Ang**2.
                        Smoothing algorithm: Karplus/York (Gamma=1.0000).
                        Polarization charges: spherical gaussians, with
                                              point-specific exponents (IZeta= 3).
                        Self-potential: point-specific (ISelfS= 7).
                        Self-field    : sphere-specific E.n sum rule (ISelfD= 2).
 1st derivatives      : Analytical E(r).r(x)/FMM algorithm (CHGder, D1EAlg=3).
                        Cavity 1st derivative terms included.
 2nd derivatives      : Analytical E(r).r(xy)/FMM algorithm (CHGder, D2EAlg=3).
                        Cavity 2nd derivative terms included.
 Solvent              : n-Pentadecane, Eps=   2.033300 Eps(inf)=   2.049192
 ------------------------------------------------------------------------------
 One-electron integrals computed using PRISM.
 NBasis=   776 RedAO= T EigKep=  2.13D-03  NBF=   776
 NBsUse=   776 1.00D-06 EigRej= -1.00D+00 NBFU=   776
 Initial guess from the checkpoint file:  "nP_EB11Na_out.chk"
 B after Tr=     0.000000    0.000000    0.000000
         Rot=    1.000000    0.000000    0.000000    0.000000 Ang=   0.00 deg.
 Requested convergence on RMS density matrix=1.00D-08 within 128 cycles.
 Requested convergence on MAX density matrix=1.00D-06.
 Requested convergence on             energy=1.00D-06.
 No special actions if energy rises.
 Inv3:  Mode=1 IEnd=    88617675.
 Iteration    1 A*A^-1 deviation from unit magnitude is 7.11D-15 for   3008.
 Iteration    1 A*A^-1 deviation from orthogonality  is 5.91D-15 for   4141   3008.
 Iteration    1 A^-1*A deviation from unit magnitude is 6.88D-15 for   3008.
 Iteration    1 A^-1*A deviation from orthogonality  is 9.68D-14 for   5313   4830.
 Error on total polarization charges =  0.00802
 SCF Done:  E(RB-P86) =  -2295.38146777     A.U. after    1 cycles
            NFock=  1  Conv=0.90D-08     -V/T= 2.0077
 QCSCF skips out because SCF is already converged.
 Range of M.O.s used for correlation:     1   776
 NBasis=   776 NAE=   179 NBE=   179 NFC=     0 NFV=     0
 NROrb=    776 NOA=   179 NOB=   179 NVA=   597 NVB=   597
 Symmetrizing basis deriv contribution to polar:
 IMax=3 JMax=2 DiffMx= 0.00D+00
 G2DrvN: will do   104 centers at a time, making    1 passes.
 Calling FoFCou, ICntrl=  3507 FMM=T I1Cent=   0 AccDes= 0.00D+00.
 NEqPCM:  Using equilibrium solvation (IEInf=0, Eps=   2.0333, EpsInf=   2.0492)
 G2PCM: DoFxE=T DoFxN=T DoGrad=T DoDP/DQ/DG/TGxP=FFFF NFrqRd=   0 IEInf=0 SqF1=F DoCFld=F IF1Alg=4.
 End of G2Drv F.D. properties file   721 does not exist.
 End of G2Drv F.D. properties file   722 does not exist.
 End of G2Drv F.D. properties file   788 does not exist.
          IDoAtm=11111111111111111111111111111111111111111111111111
          IDoAtm=11111111111111111111111111111111111111111111111111
          IDoAtm=111
 NEqPCM:  Using equilibrium solvation (IEInf=0, Eps=   2.0333, EpsInf=   2.0492)
          Differentiating once with respect to electric field.
                with respect to dipole field.
          Differentiating once with respect to nuclear coordinates.
 CalDSu exits because no D1Ps are significant.
          There are   312 degrees of freedom in the 1st order CPHF.  IDoFFX=6 NUNeed=     3.
    311 vectors produced by pass  0 Test12= 1.07D-13 1.00D-09 XBig12= 4.41D+02 3.23D+00.
 AX will form    72 AO Fock derivatives at one time.
    309 vectors produced by pass  1 Test12= 1.07D-13 1.00D-09 XBig12= 1.73D+02 1.45D+00.
    309 vectors produced by pass  2 Test12= 1.07D-13 1.00D-09 XBig12= 4.26D-01 4.82D-02.
    309 vectors produced by pass  3 Test12= 1.07D-13 1.00D-09 XBig12= 5.11D-04 1.01D-03.
    181 vectors produced by pass  4 Test12= 1.07D-13 1.00D-09 XBig12= 6.32D-08 8.63D-06.
     18 vectors produced by pass  5 Test12= 1.07D-13 1.00D-09 XBig12= 5.01D-12 1.61D-07.
      3 vectors produced by pass  6 Test12= 1.07D-13 1.00D-09 XBig12= 1.45D-15 6.25D-09.
 InvSVY:  IOpt=1 It=  1 EMax= 2.84D-14
 Solved reduced A of dimension  1440 with   312 vectors.
 Isotropic polarizability for W=    0.000000      467.37 Bohr**3.
 End of Minotr F.D. properties file   721 does not exist.
 End of Minotr F.D. properties file   722 does not exist.
 End of Minotr F.D. properties file   788 does not exist.

 **********************************************************************

            Population analysis using the SCF density.

 **********************************************************************

 Alpha  occ. eigenvalues --  -37.98141 -18.90330 -18.90279 -18.90267 -18.85067
 Alpha  occ. eigenvalues --  -18.85008 -18.85007 -18.83085 -18.83079 -18.83034
 Alpha  occ. eigenvalues --  -14.11982 -14.11939 -14.11918 -10.10067 -10.10023
 Alpha  occ. eigenvalues --  -10.10007 -10.07379 -10.07356 -10.07315 -10.03768
 Alpha  occ. eigenvalues --  -10.03750 -10.03709 -10.01916 -10.01887 -10.01863
 Alpha  occ. eigenvalues --   -9.99466  -9.99452  -9.99443  -9.97839  -9.97826
 Alpha  occ. eigenvalues --   -9.97793  -9.97554  -9.97535  -9.97512  -9.94518
 Alpha  occ. eigenvalues --   -9.94489  -9.94480  -9.94370  -9.94352  -9.94326
 Alpha  occ. eigenvalues --   -9.94133  -9.94123  -9.94122  -9.93832  -9.93822
 Alpha  occ. eigenvalues --   -9.93806  -2.07816  -1.08022  -1.07940  -1.07900
 Alpha  occ. eigenvalues --   -1.05527  -1.05523  -1.05403  -1.01106  -1.01072
 Alpha  occ. eigenvalues --   -1.00696  -0.99330  -0.98955  -0.98924  -0.91664
 Alpha  occ. eigenvalues --   -0.91629  -0.91616  -0.80660  -0.79836  -0.79827
 Alpha  occ. eigenvalues --   -0.78199  -0.78185  -0.77694  -0.72977  -0.72567
 Alpha  occ. eigenvalues --   -0.72554  -0.70850  -0.70841  -0.70626  -0.69016
 Alpha  occ. eigenvalues --   -0.69003  -0.66917  -0.66223  -0.66210  -0.66086
 Alpha  occ. eigenvalues --   -0.65909  -0.65822  -0.65799  -0.61923  -0.59459
 Alpha  occ. eigenvalues --   -0.59438  -0.57877  -0.57870  -0.57529  -0.56180
 Alpha  occ. eigenvalues --   -0.55910  -0.55902  -0.54081  -0.54063  -0.53846
 Alpha  occ. eigenvalues --   -0.53198  -0.53191  -0.52466  -0.51685  -0.51656
 Alpha  occ. eigenvalues --   -0.51520  -0.49614  -0.49038  -0.49008  -0.48371
 Alpha  occ. eigenvalues --   -0.47958  -0.47913  -0.47583  -0.46385  -0.46359
 Alpha  occ. eigenvalues --   -0.46327  -0.45667  -0.45651  -0.44600  -0.44317
 Alpha  occ. eigenvalues --   -0.44307  -0.44024  -0.44005  -0.43786  -0.42970
 Alpha  occ. eigenvalues --   -0.42951  -0.42541  -0.42164  -0.42143  -0.42104
 Alpha  occ. eigenvalues --   -0.41252  -0.41235  -0.41106  -0.40663  -0.40407
 Alpha  occ. eigenvalues --   -0.40398  -0.39917  -0.39910  -0.39626  -0.39435
 Alpha  occ. eigenvalues --   -0.39427  -0.39345  -0.39112  -0.39088  -0.39060
 Alpha  occ. eigenvalues --   -0.38162  -0.38160  -0.38089  -0.37929  -0.37903
 Alpha  occ. eigenvalues --   -0.37840  -0.37479  -0.37453  -0.37331  -0.35857
 Alpha  occ. eigenvalues --   -0.35841  -0.35508  -0.35150  -0.34873  -0.34857
 Alpha  occ. eigenvalues --   -0.34690  -0.34538  -0.34527  -0.34075  -0.34058
 Alpha  occ. eigenvalues --   -0.33965  -0.33897  -0.33880  -0.33726  -0.33572
 Alpha  occ. eigenvalues --   -0.33550  -0.33486  -0.33090  -0.32809  -0.32769
 Alpha  occ. eigenvalues --   -0.29745  -0.29713  -0.29141  -0.28174  -0.28147
 Alpha  occ. eigenvalues --   -0.28099  -0.27158  -0.27123  -0.27010
 Alpha virt. eigenvalues --   -0.10788  -0.10228  -0.10189  -0.09499  -0.09047
 Alpha virt. eigenvalues --   -0.09008  -0.03488  -0.01502  -0.00921  -0.00893
 Alpha virt. eigenvalues --    0.00143   0.00459   0.00510   0.01704   0.01962
 Alpha virt. eigenvalues --    0.01983   0.02573   0.02600   0.02977   0.03235
 Alpha virt. eigenvalues --    0.03249   0.04102   0.04194   0.04233   0.04386
 Alpha virt. eigenvalues --    0.04463   0.05042   0.05108   0.05723   0.05836
 Alpha virt. eigenvalues --    0.05867   0.06193   0.06221   0.06648   0.06905
 Alpha virt. eigenvalues --    0.06951   0.07015   0.07174   0.07274   0.07293
 Alpha virt. eigenvalues --    0.07903   0.08364   0.08414   0.08836   0.09013
 Alpha virt. eigenvalues --    0.09083   0.09355   0.09665   0.09709   0.10084
 Alpha virt. eigenvalues --    0.10184   0.10239   0.10328   0.10718   0.10752
 Alpha virt. eigenvalues --    0.11309   0.11418   0.11429   0.11492   0.11808
 Alpha virt. eigenvalues --    0.11827   0.12199   0.12279   0.12364   0.12604
 Alpha virt. eigenvalues --    0.12800   0.12828   0.12902   0.13131   0.13176
 Alpha virt. eigenvalues --    0.13407   0.13563   0.13622   0.14116   0.14591
 Alpha virt. eigenvalues --    0.14719   0.14736   0.15097   0.15253   0.15280
 Alpha virt. eigenvalues --    0.15591   0.15687   0.16103   0.16303   0.16319
 Alpha virt. eigenvalues --    0.16857   0.17518   0.17551   0.18143   0.18275
 Alpha virt. eigenvalues --    0.18320   0.18378   0.18705   0.18773   0.19029
 Alpha virt. eigenvalues --    0.19403   0.19440   0.19788   0.20098   0.20298
 Alpha virt. eigenvalues --    0.20978   0.21087   0.21160   0.21299   0.23648
 Alpha virt. eigenvalues --    0.23670   0.23898   0.25567   0.25630   0.25707
 Alpha virt. eigenvalues --    0.28226   0.28277   0.28765   0.30680   0.30726
 Alpha virt. eigenvalues --    0.30754   0.32942   0.33176   0.33197   0.37727
 Alpha virt. eigenvalues --    0.37802   0.39075   0.39099   0.39227   0.40087
 Alpha virt. eigenvalues --    0.40725   0.40772   0.40838   0.40979   0.41078
 Alpha virt. eigenvalues --    0.41860   0.42240   0.42272   0.42466   0.43344
 Alpha virt. eigenvalues --    0.43380   0.43500   0.44263   0.44332   0.44479
 Alpha virt. eigenvalues --    0.45385   0.45520   0.46779   0.46805   0.46959
 Alpha virt. eigenvalues --    0.47452   0.47862   0.47944   0.48683   0.48720
 Alpha virt. eigenvalues --    0.48823   0.48868   0.49698   0.49776   0.51315
 Alpha virt. eigenvalues --    0.51332   0.51435   0.51745   0.51770   0.52054
 Alpha virt. eigenvalues --    0.52963   0.53211   0.53277   0.53650   0.54113
 Alpha virt. eigenvalues --    0.54256   0.55536   0.56339   0.56382   0.57292
 Alpha virt. eigenvalues --    0.58594   0.58621   0.59213   0.59803   0.59867
 Alpha virt. eigenvalues --    0.60308   0.61088   0.61181   0.61262   0.61828
 Alpha virt. eigenvalues --    0.61935   0.62355   0.62493   0.62590   0.62786
 Alpha virt. eigenvalues --    0.62849   0.62951   0.65300   0.65819   0.65869
 Alpha virt. eigenvalues --    0.65964   0.67152   0.67246   0.67659   0.67756
 Alpha virt. eigenvalues --    0.68275   0.69388   0.69806   0.69855   0.70445
 Alpha virt. eigenvalues --    0.71070   0.71150   0.71340   0.71548   0.71682
 Alpha virt. eigenvalues --    0.72461   0.72548   0.72830   0.73095   0.73205
 Alpha virt. eigenvalues --    0.73595   0.74138   0.74282   0.75755   0.75844
 Alpha virt. eigenvalues --    0.76075   0.76958   0.77058   0.77152   0.77598
 Alpha virt. eigenvalues --    0.77711   0.77744   0.78416   0.78919   0.78996
[...]
 .00000264,0.00000068,0.00000013,-0.00000155,0.00000043,-0.00000021,0.0
 0000131,-0.00000106,-0.00000116,0.00000263,0.00000104,0.00000103,-0.00
 000279,-0.00000044,0.00000007,-0.00000057,0.00000002,0.00000042,-0.000
 00112,-0.00000106,0.00000155,-0.00000168,0.00000125,-0.00000180,0.0000
 0266,0.00000065,0.00000191,-0.00000202,-0.00000048,-0.00000040,-0.0000
 0005,-0.00000025,0.00000046,-0.00000172,-0.00000035,0.,-0.00000076,-0.
 00000112,0.00000052,0.00000264,0.00000016,-0.00000024,-0.00000137,-0.0
 0000096,-0.00000160,-0.00000101,-0.00000168,0.00000126,0.00000194,0.00
 000081,-0.00000028,-0.00001369,0.00000826,0.00000118,-0.00000211,0.000
 00309,0.00000435,0.00000378,0.00000342,-0.00000130,-0.00000283,-0.0000
 0186,0.00000225,-0.00000397,0.00000213,-0.00000028,-0.00000630,0.00000
 521,-0.00000318,-0.00000103,0.00000058,0.00000653,0.00000512,0.0000015
 5,-0.00000212,-0.00000153,-0.00000091,0.00000321,-0.00000031,-0.000006
 01,0.00001432,0.00001399,0.00000642,0.00049144,0.00001360,-0.00004852,
 0.00002318,0.00006183,-0.00002746,0.00000233,-0.00001832,-0.00000604,-
 0.00002997,0.00000224,-0.00000827,0.00002298,0.00000312,-0.00000577,-0
 .00002726,-0.00000273,-0.00012441,0.00003828,0.00005560,0.00011247,-0.
 00012786,0.00009322,0.00018721,-0.00065030,-0.00705584,0.00457908,-0.0
 0716163,-0.01596427,0.01095140,0.05276924,0.22265709,-0.00002590,0.000
 02044,0.00004281,0.00014300,-0.00002778,0.00005947,-0.00062951,0.00049
 863,-0.00073318,0.00062867,0.00039167,0.00070811,-0.00001326,-0.000000
 92,-0.00001074,-0.00002123,0.00004388,0.00001212,0.00002267,-0.0000130
 3,0.00000029,0.00000297,0.00000563,-0.00000808,0.00006770,-0.00031254,
 0.00054752,-0.00001054,-0.00000701,0.00000346,0.00007947,-0.00002040,-
 0.00010920,-0.00005057,-0.00004880,0.00007776,-0.00000234,-0.00000412,
 -0.00000413,0.00000046,0.00000355,0.00000152,0.00000126,0.00000131,0.0
 0000265,0.00016267,0.00013696,-0.00067515,0.00001610,0.00004086,0.0000
 2499,0.00000524,-0.00270643,-0.00200883,0.00005527,-0.00000128,0.00009
 177,-0.00068184,-0.00044333,0.00130434,-0.00002812,0.00005249,0.000043
 71,0.00000172,-0.00001028,0.00003107,0.00585140,0.01368915,-0.03179443
 ,-0.00000263,0.00000321,0.00000179,-0.00294444,0.00142316,-0.00171116,
 0.00001472,-0.00005932,-0.00005858,0.00082422,0.00129442,-0.00082619,0
 .00000589,-0.00001008,-0.00001788,0.03269114,0.11266164,-0.12044110,0.
 00000086,-0.00000708,0.00000208,0.00001157,-0.00039352,-0.00017671,0.0
 0000026,0.00000344,-0.00000212,-0.00000633,-0.00019112,-0.00001499,-0.
 00000067,0.00000089,-0.00000284,0.00011134,0.00018889,0.00008710,-0.00
 046996,-0.00032913,0.00024970,0.00008045,-0.00009860,-0.00002769,0.000
 00349,-0.00002783,-0.00011652,0.00515604,0.00496557,0.00238010,0.00001
 456,-0.00001777,-0.00000103,-0.00012185,-0.00003905,0.00029881,0.00000
 067,-0.00000118,0.00000047,0.00008672,-0.00001296,-0.00003179,-0.00000
 777,0.00000092,0.00000704,-0.00001995,0.00007288,-0.00005865,0.0006743
 4,-0.00037239,-0.00042268,0.00016207,0.00006147,0.00010505,-0.00001768
 ,-0.00000115,0.00000449,-0.00002691,-0.00002293,0.00006693,0.00006956,
 0.00002418,-0.00002847,-0.00003922,0.00003625,0.00010513,-0.00000963,-
 0.00004267,0.00011670,-0.00011292,0.00021989,-0.00007942,0.00000988,0.
 00000791,0.00000968,-0.00000611,-0.00000049,0.00000479,-0.00000539,0.0
 0000102,-0.00000041,0.00000264,0.00000506,-0.00000564,0.00000312,-0.00
 000192,0.00000198,0.00000200,-0.00000012,0.00000115,0.00000091,0.00000
 127,-0.00000177,-0.00000213,-0.00000037,0.00000035,-0.00000237,0.00000
 162,0.00000376,0.00000805,-0.00000656,0.00001307,0.00000052,0.00000167
 ,0.00000277,-0.00000321,0.00000288,-0.00000032,0.,-0.00000047,0.000001
 23,-0.00000059,0.00000147,0.00000111,0.00000085,-0.00000213,-0.0000013
 5,-0.00000112,-0.00000052,0.00000168,-0.00000018,-0.00000091,0.0000008
 6,0.00000179,-0.00000065,0.00000069,-0.00000161,0.00000146,0.00000048,
 0.00000299,-0.00000567,0.00000236,-0.00000089,0.00000116,0.00000175,-0
 .00000010,-0.00000133,-0.00000103,-0.00000040,-0.00000107,0.00000035,0
 .00000075,0.00000226,0.00000002,-0.00000069,-0.00000208,0.00000143,-0.
 00000073,-0.00000153,-0.00000296,0.00000063,0.00000244,0.00000078,0.00
 000168,-0.00001902,0.00001190,-0.00000725,-0.00000441,0.00000227,0.000
 00367,0.00000390,0.00000605,0.00000215,0.00000534,0.00000525,0.0000030
 7,-0.00000151,0.00000449,-0.00000551,-0.00000072,-0.00000792,-0.000002
 30,-0.00000162,0.00000005,0.00000756,0.00000805,0.00000075,-0.00000146
 ,0.00000218,0.00000230,-0.00000402,-0.00000142,0.00000370,0.00002839,0
 .00002677,-0.00000096,-0.00095172,0.00011228,-0.00026881,0.00008679,-0
 .00005282,0.00006152,-0.00001364,0.00000943,0.00001405,-0.00003292,-0.
 00000669,0.00001969,-0.00000837,-0.00000373,-0.00000153,-0.00000234,-0
 .00012397,-0.00001702,-0.00000836,0.00001782,0.00004957,-0.00010088,0.
 00005965,0.00005466,-0.00129396,-0.00706630,0.00628412,-0.00147928,-0.
 00196988,0.00329947,-0.03782330,-0.12180804,0.14379977,0.00136863,0.00
 053003,-0.00073112,-0.00040028,-0.00055010,0.00040770,-0.00915856,0.00
 335104,-0.00119503,0.00069856,0.00000204,0.00275709,-0.00038498,-0.000
 28996,0.00086959,-0.00091253,0.00039412,-0.00000233,0.00032664,-0.0002
 6374,-0.00005411,0.00017389,0.00009316,-0.00013765,0.00078031,-0.00342
 610,0.00122443,0.00169740,-0.00011611,-0.00059752,-0.00294876,-0.00547
 176,0.00460938,-0.00231902,0.00066408,-0.00466580,-0.00044791,-0.00010
 917,-0.00032680,0.00005418,-0.00005981,0.00007065,0.00020682,0.0000786
 2,0.00014540,0.00059909,0.00159600,0.00060078,-0.00292341,-0.00120432,
 -0.00109344,-0.00221565,-0.00087423,-0.00326208,-0.00358705,0.00033305
 ,0.00621204,-0.00116812,0.00148014,-0.00184413,-0.00176432,-0.00060942
 ,-0.00083148,0.00103889,-0.00363825,0.00192866,-0.00267931,-0.00152071
 ,-0.00131432,0.00051740,0.00140541,0.00132449,0.00173105,-0.00039528,-
 0.00176764,0.00301886,0.00344035,0.00041049,-0.00385652,-0.00658528,0.
 00176495,-0.00086015,0.00001539,-0.00098057,-0.00037289,0.00034712,0.0
 0020957,-0.00033915,0.00031515,-0.00012841,-0.00065734,-0.00009463,0.0
 0011685,-0.00001093,-0.00012520,0.00006407,0.00025574,0.00009021,-0.00
 001873,0.00023607,-0.00010826,0.00016475,0.00002114,-0.00008351,-0.000
 03782,0.00075165,0.00089443,-0.00022417,-0.00036515,-0.00023587,-0.000
 01560,-0.00890180,0.00361314,-0.00802551,0.00225638,0.00445966,0.00416
 177,-0.00054995,0.00028412,0.00049166,-0.00018240,0.00022359,-0.000199
 02,0.00006758,0.00010076,-0.00015894,0.00020903,0.00000582,0.00010057,
 0.00023535,-0.00014680,-0.00027761,0.00002620,-0.00008128,0.00016161,0
 .00017035,0.00013048,0.00027451,0.00001594,-0.00001234,-0.00001491,-0.
 00016354,-0.00007246,0.00007711,-0.00001102,-0.00000431,-0.00000332,-0
 .00002535,0.00007304,0.00003012,-0.00010129,0.00008788,-0.00000538,-0.
 00000440,0.00002206,-0.00007541,-0.00004416,0.00008510,0.00008618,0.00
 016960,0.00022872,0.00014755,-0.00006619,-0.00004822,0.00003108,0.0001
 6166,0.00009875,0.00002991,-0.00006422,-0.00001834,0.00002496,-0.00000
 499,0.00000282,0.00004154,-0.00005599,-0.00002503,0.00005192,-0.000117
 09,0.00010234,0.00009787,0.00014652,-0.00000612,-0.00001205,0.00017671
 ,0.00003399,0.00016114,-0.00000508,0.00011541,0.00019456,0.00007709,-0
 .00013189,0.00022178,-0.00032577,0.00068304,0.00017236,0.00009581,-0.0
 0014838,0.00006569,-0.00002367,-0.00012214,-0.00008374,-0.00005765,-0.
 00001604,-0.00003497,-0.00001572,0.00002095,0.00000298,-0.00003614,0.0
 0004171,0.00005946,-0.00013109,0.00005592,-0.00006866,0.00004266,-0.00
 011953,-0.00002552,-0.00028664,0.00032131,-0.00012011,0.00004379,-0.00
 009282,0.00002609,-0.00007930,0.00005544,-0.00001654,-0.00000761,-0.00
 000073,-0.00000755,-0.00004781,0.00009542,-0.00003106,-0.00002646,-0.0
 0005073,0.00000786,-0.00012837,-0.00002973,-0.00011101,-0.00002545,0.0
 0008480,0.00001262,0.00003466,-0.00011640,-0.00014872,-0.00001483,-0.0
 0002688,-0.00007743,0.00011201,0.00018018,-0.00018415,-0.00004114,-0.0
 0000656,-0.00000818,0.00015846,-0.00002657,0.00005849,-0.00017520,0.00
 005830,-0.00003523,-0.00007140,0.00001054,-0.00001151,0.00016983,0.000
 11206,0.00003693,-0.00006630,0.00000591,0.00001051,0.00020622,-0.00001
 714,-0.00005360,-0.00079210,-0.00002509,-0.00039727,-0.00009784,-0.000
 11665,-0.00004275,0.00001937,0.00002409,-0.00004964,-0.00000855,0.0000
 0125,-0.00003739,0.00007478,-0.00009417,-0.00000648,-0.00014221,0.0000
 1035,-0.00001207,-0.00002990,0.00003420,0.00000449,-0.00001139,-0.0001
 2006,-0.00000510,-0.00002085,-0.00002092,-0.00005664,-0.00006627,-0.00
 016541,-0.00014853,0.00002734,0.00005071,-0.00001534,0.00020767,-0.000
 01228,-0.00010980,0.03201780,0.00368540,-0.00143521,-0.00191996,-0.000
 86227,0.00163348,-0.00178143,0.00257216,0.00250110,0.00037787,-0.00070
 335,-0.00197398,-0.00051843,-0.00033847,-0.00071508,0.00069664,-0.0000
 5444,-0.00036221,0.00012414,-0.00004627,0.00005067,-0.00004613,0.00016
 589,0.00011982,-0.00012160,-0.00087033,-0.00174179,0.00050614,-0.00097
 634,-0.00042388,0.00033101,-0.00729930,-0.00370153,0.00725728,0.000554
 21,-0.00007369,-0.00408306,-0.00036219,-0.00036391,-0.00040577,-0.0000
 9229,0.00017281,0.00014631,0.00017524,0.00011668,0.00025004,0.00076769
 ,0.00071703,0.00032785,0.00126291,0.00200913,0.00086095,-0.00027049,-0
 .00261478,0.00410684,0.00067870,-0.00272203,0.00045679,0.00072798,-0.0
 0046266,-0.00216270,-0.00140604,0.00060147,0.00233633,-0.00071565,-0.0
 0110316,0.00032491,0.00160960,0.00232084,0.00138328,0.00108292,0.00072
 535,0.00118792,-0.00060724,-0.00051373,0.00053026,0.00250461,-0.008508
 95,-0.00143200,-0.00772677,-0.00277866,0.00189133,0.00001127,-0.000190
 25,0.00042727,0.00022583,-0.00068716,-0.00102359,-0.00005571,-0.000941
 58,-0.00001709,-0.00053455,-0.00059101,-0.00004089,0.00006667,0.000393
 84,-0.00003492,0.00030081,0.00011851,0.00005288,-0.00005506,0.00005258
 ,-0.00005417,-0.00001095,0.00025763,0.00015990,0.00331155,-0.00173225,
 -0.00137316,-0.00110614,0.00164817,-0.00072708,0.00206136,0.00236151,0
 .00046629,0.00241327,-0.00832300,-0.00702577,0.00003456,-0.00022626,-0
 .00008679,-0.00005447,-0.00060917,0.00044591,0.00007462,0.00014871,-0.
 00001197,-0.00002814,0.00001801,-0.00012339,-0.00005768,0.00007576,0.0
 0000084,0.00002227,0.00028753,-0.00022716,-0.00039746,-0.00075642,0.00
 042207,0.00011334,0.00018812,0.00006444,-0.00005565,-0.00009650,0.0000
 0124,-0.00001254,-0.00004104,0.00000434,0.00012021,0.00009308,-0.00008
 266,0.00003583,0.00016890,-0.00003875,-0.00004516,-0.00004948,0.000025
 40,-0.00002694,-0.00009721,-0.00002989,-0.00004565,-0.00032973,-0.0000
 4163,0.00002780,0.00006699,0.00004182,0.00002941,-0.00004468,-0.000016
 12,-0.00004773,-0.00012370,-0.00000536,-0.00000343,-0.00000750,0.00001
 826,0.00004017,-0.00001796,0.00003684,0.00002405,-0.00006619,-0.000070
 08,0.00001779,-0.00007772,0.00000914,-0.00014987,0.00002594,-0.0001021
 9,0.00010200,0.00015510,-0.00005429,0.00007713,-0.00007669,0.00004006,
 0.00022375,-0.00026705,-0.00036656,-0.00003791,0.00012651,-0.00003696,
 -0.00008035,0.00009902,0.00001643,0.00000747,-0.00021523,-0.00005117,0
 .00001507,-0.00003219,-0.00000484,0.00000818,-0.00002170,0.00004727,-0
 .00003596,-0.00004093,-0.00005685,-0.00017683,0.00002876,0.00002590,-0
 .00000028,0.00015736,-0.00011487,-0.00000708,-0.00005743,-0.00004566,0
 .00002492,-0.00010771,-0.00002150,0.00000002,-0.00001809,-0.00004982,0
 .00002207,0.00017792,-0.00001965,0.00001630,-0.00003780,-0.00006410,-0
 .00009355,-0.00006864,-0.00005340,0.00010998,0.00010278,0.00000559,-0.
 00011028,0.00014156,-0.00015968,0.00018968,0.00001219,-0.00021570,0.00
 000574,0.00009340,-0.00011569,-0.00001172,-0.00000892,-0.00000357,0.00
 003055,-0.00008136,0.00007055,0.00006563,-0.00009409,0.00006050,-0.000
 09473,-0.00009099,0.00009290,0.00006506,-0.00008454,0.00001297,-0.0000
 5990,-0.00001329,-0.00007970,0.00011267,0.00001320,-0.00004715,-0.0005
 8440,0.00009656,0.00004022,-0.00037877,-0.00005278,0.00014437,0.000103
 28,-0.00002778,0.00000398,-0.00000480,-0.00000056,0.00002663,-0.000152
 49,0.00004809,0.00003835,-0.00002669,-0.00004803,0.00002148,-0.0000237
 7,-0.00014913,0.00011651,-0.00008463,0.00007835,-0.00001008,0.00004737
 ,-0.00003837,0.00001495,0.00004770,0.00004951,0.00016262,-0.00011570,0
 .00016990,0.00020710,0.00001312,-0.00004705,0.00019167,0.00109253,0.02
 776054,0.00168942,-0.00062488,-0.00169092,-0.00043907,0.00066640,-0.00
 050466,0.00683464,-0.00224124,0.00568855,-0.00154185,-0.00038516,-0.00
 368454,0.00009379,-0.00018743,0.00023163,0.00030853,-0.00033423,-0.000
 09134,-0.00016402,0.00011335,0.00002758,-0.00000426,0.00001520,0.00009
 892,-0.00153292,0.00324639,-0.00209106,0.00140472,0.00039902,-0.000463
 74,-0.00161085,0.00023842,0.00498504,-0.00086690,0.00057934,-0.0044392
 1,-0.00009542,0.00008859,0.00002801,0.00001318,-0.00011126,-0.00003516
 ,0.00003509,-0.00001153,-0.00004030,-0.00036630,-0.00142700,-0.0004658
 7,-0.00201324,-0.00287016,-0.00214321,-0.00057844,-0.00053983,-0.00283
 328,0.00043205,0.00116906,-0.00562111,0.00054043,0.00147956,-0.0035793
 1,0.00117164,-0.00144067,-0.00341870,-0.00033733,0.00179852,-0.0017323
 7,-0.00128941,-0.00108921,-0.00156015,-0.00035773,-0.00071907,-0.00047
 884,0.00071133,0.00007191,-0.00044936,-0.00121710,0.00705179,0.0052967
 7,-0.00489519,-0.00410508,0.00491911,0.00012309,0.00018622,0.00024635,
 -0.00018948,-0.00000238,0.00022242,0.00012663,0.00041730,-0.00010404,-
 0.00041672,-0.00010592,-0.00008912,-0.00001488,-0.00018977,0.00003242,
 0.00017229,0.00008197,0.00002553,-0.00001443,-0.00000723,0.00008867,0.
 00001244,0.00000068,0.00009578,0.00348323,-0.00036782,-0.00219530,-0.0
 0106186,0.00101167,-0.00045445,0.00065768,-0.00144771,0.00505404,0.001
 04181,0.00102058,0.00458170,-0.00002164,-0.00013151,0.00002472,0.00013
 038,0.00002530,0.00003436,0.00008968,0.00006530,-0.00003667,-0.0001029
 7,0.00004191,-0.00003942,-0.00001175,0.00003803,-0.00004113,-0.0000230
 1,-0.00001881,-0.00005189,0.00005075,0.00065097,-0.00002876,-0.0000128
 8,-0.00004608,-0.00003415,-0.00003101,-0.00005517,0.00007280,-0.000038
 96,0.00005891,-0.00006486,0.00000751,0.00002028,-0.00004641,-0.0000344
 5,0.00006997,-0.00001053,-0.00002688,0.00001509,-0.00002992,-0.0000025
 2,-0.00000807,-0.00000314,-0.00016122,-0.00033176,-0.00012572,0.000070
 31,0.00005629,-0.00005047,0.00003301,-0.00002509,0.00000150,-0.0000324
 3,-0.00005473,0.00002131,-0.00001881,-0.00000811,-0.00001341,-0.000020
 76,-0.00000478,-0.00002080,0.00000089,-0.00003429,0.00002145,0.0000327
 0,-0.00002326,-0.00000087,0.00000617,-0.00004322,-0.00008434,-0.000176
 01,0.00000085,-0.00038606,-0.00005731,0.00001890,-0.00011662,0.0005328
 2,-0.00038480,0.00001483,-0.00003636,0.00002938,-0.00003398,0.00001801
 ,-0.00001574,-0.00004184,-0.00002568,0.00006496,0.00006523,0.00006537,
 0.00000127,-0.00006532,0.00002284,0.00000862,-0.00003099,-0.00000304,0
 .00000433,0.00000229,0.00007883,-0.00000174,-0.00001031,-0.00019421,0.
 00029760,-0.00013267,0.00001437,-0.00008824,-0.00005015,-0.00003012,0.
 00005434,0.00002211,0.00000260,0.00002208,-0.00001295,-0.00003782,-0.0
 0001903,0.00000101,0.00000488,0.00001815,-0.00002177,-0.00002991,0.000
 01732,0.00002119,-0.00003746,-0.00001747,-0.00000103,0.00007917,0.0001
 4501,-0.00039170,0.00004636,0.00004218,-0.00011038,-0.00003873,0.00001
 567,-0.00007836,-0.00002995,-0.00006185,-0.00006609,-0.00002320,-0.000
 00463,-0.00004494,0.00006812,-0.00000385,0.00007283,0.00000568,-0.0000
 0038,0.00000062,-0.00004469,-0.00007001,-0.00001035,-0.00000017,-0.000
 02904,-0.00003329,0.00004689,0.00001268,-0.00003915,-0.00061854,-0.000
 25256,0.00005981,0.00035203,0.00002334,-0.00013208,-0.00008079,0.00003
 388,-0.00004829,0.00001441,-0.00001077,-0.00001221,-0.00000017,0.00004
 520,0.00000296,0.00006771,-0.00000457,0.00002441,0.00002706,0.00001102
 ,0.00002375,0.00000191,0.00004426,-0.00000008,0.00001389,-0.00001350,-
 0.00002028,0.00001163,-0.00005818,-0.00010118,0.00002676,0.00002333,-0
 .00007607,0.00006044,-0.00014595,-0.00037556,0.00017566,-0.00143762,0.
 00918248\\-0.00000042,0.00000117,-0.00000016,-0.00000023,0.00000130,-0
 .00000009,0.00000051,0.00000147,0.00000008,0.00000036,0.00000054,-0.00
 000038,-0.00000082,0.00000144,-0.00000037,-0.00000035,0.00000258,-0.00
 000039,-0.00000074,0.00000228,-0.00000042,0.00000040,0.00000223,-0.000
 00010,0.00000074,0.00000180,-0.00000025,-0.00000183,0.00000077,0.00000
 005,-0.00000137,0.00000069,0.00000046,-0.00000083,0.00000052,-0.000000
 38,-0.00000201,0.00000092,0.00000011,-0.00000230,0.00000146,-0.0000001
 6,-0.00000273,0.00000064,-0.00000006,0.00000166,0.00000047,-0.00000045
 ,-0.00000204,-0.00000035,-0.00000034,0.00000079,0.00000063,-0.00000045
 ,-0.00000009,-0.00000148,0.00000026,0.00000067,-0.00000046,-0.00000016
 ,-0.00000067,-0.00000064,-0.00000050,-0.00000069,-0.00000157,0.0000000
 5,0.00000079,-0.00000051,-0.00000018,-0.00000088,-0.00000088,0.0000001
 3,0.00000123,0.00000011,-0.00000019,-0.00000139,0.00000073,0.00000108,
 0.00000083,-0.00000153,0.00000073,-0.00000094,-0.00000135,0.00000001,0
 .00000149,-0.00000012,-0.00000065,-0.00000192,-0.00000111,0.00000022,0
 .00000217,-0.00000110,0.00000005,-0.00000170,-0.00000201,0.00000021,0.
 00000256,-0.00000028,0.00000002,-0.00000217,-0.00000118,0.00000023,0.0
 0000211,-0.00000144,0.00000004,0.00000119,-0.00000119,-0.00000030,0.00
 000064,-0.00000212,0.00000029,0.00000006,-0.00000091,0.00000056,0.0000
 0137,0.00000106,0.00000118,0.00000014,-0.00000214,0.00000040,0.0000017
 7,0.00000171,-0.00000014,-0.00000029,-0.00000267,0.00000044,0.00000237
 ,0.00000084,-0.00000011,0.00000071,-0.00000274,0.00000033,0.00000209,0
 .00000183,-0.00000032,0.00000136,-0.00000057,-0.00000009,0.00000199,-0
 .00000119,0.00000015,0.00000169,-0.00000177,0.00000020,0.00000214,-0.0
 0000125,0.00000007,0.00000242,-0.00000171,0.00000018,0.00000294,-0.000
 00096,0.,0.00000261,-0.00000041,-0.00000004,0.00000260,-0.00000036,-0.
 00000004,0.00000008,-0.00000170,0.00000017,0.00000052,-0.00000225,0.00
 000013,0.00000088,-0.00000302,0.00000034,0.00000127,-0.00000245,0.0000
 0025,0.00000067,-0.00000270,0.00000030,-0.00000039,-0.00000273,0.00000
 022,-0.00000066,-0.00000233,0.00000032,-0.00000017,-0.00000302,0.00000
 034,-0.00000094,-0.00000194,0.00000027,-0.00000058,-0.00000128,0.00000
 027,-0.00000129,-0.00000134,0.00000024,-0.00000108,-0.00000097,0.00000
 002,-0.00000208,-0.00000122,0.00000015,-0.00000264,-0.00000128,0.00000
 023,-0.00000228,-0.00000059,0.00000012,-0.00000197,-0.00000112,0.00000
 018,-0.00000157,-0.00000208,0.00000028,-0.00000162,-0.00000216,0.00000
 034,-0.00000220,-0.00000212,0.00000030,-0.00000161,0.00000075,-0.00000
 009,-0.00000204,0.00000075,-0.00000006,-0.00000268,0.00000013,0.000000
 06,-0.00000281,0.00000080,-0.00000002,-0.00000307,0.00000079,-0.000000
 02,-0.00000214,0.00000167,-0.00000017,-0.00000176,0.00000171,-0.000000
 17,-0.00000250,0.00000171,-0.00000016,-0.00000102,0.00000111,-0.000000
 10,-0.00000075,0.00000180,-0.00000018,-0.00000140,0.00000163,-0.000000
 16,0.00000013,0.00000240,-0.00000038,0.00000028,0.00000295,-0.00000039
 ,0.00000076,0.00000229,-0.00000029,-0.00000111,0.00000246,-0.00000023,
 -0.00000072,0.00000300,-0.00000032,-0.00000093,0.00000246,-0.00000025,
 -0.00000005,0.00000234,-0.00000026,-0.00000019,0.00000141,-0.00000022,
 0.00000123,0.00000110,-0.00000020,0.00000186,0.00000142,-0.00000021,0.
 00000188,0.00000203,-0.00000033,0.00000217,0.00000229,-0.00000033,0.00
 000142,0.00000230,-0.00000028,0.00000254,0.00000070,-0.00000016,0.0000
 0279,0.00000141,-0.00000028,0.00000251,0.00000113,-0.00000029,0.000001
 84,-0.00000034,0.00000005,0.00000198,0.00000033,-0.00000003,0.00000121
 ,0.00000030,0.00000005,0.00000026,0.00000025,0.00000013\\\@


 THERE IS SOMETHING FASCINATING ABOUT SCIENCE.
 ONE GETS SUCH WHOLESALE CONJECTURE OUT OF SUCH TRIFLING INVESTMENTS.

                                                       -- MARK TWAIN
 Job cpu time:       0 days 12 hours 21 minutes 57.1 seconds.
 File lengths (MBytes):  RWF=   7376 Int=      0 D2E=      0 Chk=     72 Scr=      1
 Normal termination of Gaussian 09 at Sat Oct 27 07:00:16 2018.
