 Entering Gaussian System, Link 0=g09
 Input=/net/work/kozuch/EnniatinDef2TZVP/nP_EB11K_above/Freq/nP_EB11K_above.com
 Output=/net/work/kozuch/EnniatinDef2TZVP/nP_EB11K_above/Freq/nP_EB11K_above.log
 Initial command:
 /afs/math/software/gaussian/g09.D01/opt/@sys/l1.exe "/scratch/kozuch_g09.nnjO9YE/Gau-22913.inp" -scrdir="/scratch/kozuch_g09.nnjO9YE/"
 Entering Link 1 = /afs/math/software/gaussian/g09.D01/opt/@sys/l1.exe PID=     22914.
  
 Copyright (c) 1988,1990,1992,1993,1995,1998,2003,2009,2013,
            Gaussian, Inc.  All Rights Reserved.
  
 This is part of the Gaussian(R) 09 program.  It is based on
 the Gaussian(R) 03 system (copyright 2003, Gaussian, Inc.),
 the Gaussian(R) 98 system (copyright 1998, Gaussian, Inc.),
 the Gaussian(R) 94 system (copyright 1995, Gaussian, Inc.),
 the Gaussian 92(TM) system (copyright 1992, Gaussian, Inc.),
 the Gaussian 90(TM) system (copyright 1990, Gaussian, Inc.),
 the Gaussian 88(TM) system (copyright 1988, Gaussian, Inc.),
 the Gaussian 86(TM) system (copyright 1986, Carnegie Mellon
 University), and the Gaussian 82(TM) system (copyright 1983,
 Carnegie Mellon University). Gaussian is a federally registered
 trademark of Gaussian, Inc.
  
 This software contains proprietary and confidential information,
 including trade secrets, belonging to Gaussian, Inc.
  
 This software is provided under written license and may be
 used, copied, transmitted, or stored only in accord with that
 written license.
  
 The following legend is applicable only to US Government
 contracts under FAR:
  
                    RESTRICTED RIGHTS LEGEND
  
 Use, reproduction and disclosure by the US Government is
 subject to restrictions as set forth in subparagraphs (a)
 and (c) of the Commercial Computer Software - Restricted
 Rights clause in FAR 52.227-19.
  
 Gaussian, Inc.
 340 Quinnipiac St., Bldg. 40, Wallingford CT 06492
  
  
 ---------------------------------------------------------------
 Warning -- This program may not be used in any manner that
 competes with the business of Gaussian, Inc. or will provide
 assistance to any competitor of Gaussian, Inc.  The licensee
 of this program is prohibited from giving any competitor of
 Gaussian, Inc. access to this program.  By using this program,
 the user acknowledges that Gaussian, Inc. is engaged in the
 business of creating and licensing software in the field of
 computational chemistry and represents and warrants to the
 licensee that it is not a competitor of Gaussian, Inc. and that
 it will not use this program in any manner prohibited above.
 ---------------------------------------------------------------
  

 Cite this work as:
 Gaussian 09, Revision D.01,
 M. J. Frisch, G. W. Trucks, H. B. Schlegel, G. E. Scuseria, 
 M. A. Robb, J. R. Cheeseman, G. Scalmani, V. Barone, B. Mennucci, 
 G. A. Petersson, H. Nakatsuji, M. Caricato, X. Li, H. P. Hratchian, 
 A. F. Izmaylov, J. Bloino, G. Zheng, J. L. Sonnenberg, M. Hada, 
 M. Ehara, K. Toyota, R. Fukuda, J. Hasegawa, M. Ishida, T. Nakajima, 
 Y. Honda, O. Kitao, H. Nakai, T. Vreven, J. A. Montgomery, Jr., 
 J. E. Peralta, F. Ogliaro, M. Bearpark, J. J. Heyd, E. Brothers, 
 K. N. Kudin, V. N. Staroverov, T. Keith, R. Kobayashi, J. Normand, 
 K. Raghavachari, A. Rendell, J. C. Burant, S. S. Iyengar, J. Tomasi, 
 M. Cossi, N. Rega, J. M. Millam, M. Klene, J. E. Knox, J. B. Cross, 
 V. Bakken, C. Adamo, J. Jaramillo, R. Gomperts, R. E. Stratmann, 
 O. Yazyev, A. J. Austin, R. Cammi, C. Pomelli, J. W. Ochterski, 
 R. L. Martin, K. Morokuma, V. G. Zakrzewski, G. A. Voth, 
 P. Salvador, J. J. Dannenberg, S. Dapprich, A. D. Daniels, 
 O. Farkas, J. B. Foresman, J. V. Ortiz, J. Cioslowski, 
 and D. J. Fox, Gaussian, Inc., Wallingford CT, 2013.
 
 ******************************************
 Gaussian 09:  ES64L-G09RevD.01 24-Apr-2013
                27-Oct-2018 
 ******************************************
 %chk=nP_EB11K_above.chk
 %mem=2GB
 ----------------------------------------------------------------------
 # bp86/gen freq int=ultrafine geom=checkpoint guess=checkpoint nosymm 
 scf=(xqc,maxconventionalcycles=128) scrf=(solvent=n-Pentadecane)
 ----------------------------------------------------------------------
 1/10=4,29=2,30=1,38=1/1,3;
 2/12=2,15=1,40=1/2;
 3/5=7,11=2,14=-4,16=1,25=1,30=1,70=2201,71=2,72=151,74=404,75=-5,116=-2,140=1/1,2,3;
 4/5=1/1;
 5/5=2,8=3,13=1,38=6,53=151,85=128,98=1/2,8;
 8/6=4,10=90,11=11/1;
 11/6=1,8=1,9=11,15=111,16=1,31=1/1,2,10;
 10/6=1,31=1/2;
 6/7=2,8=2,9=2,10=2,18=1,28=1/1;
 7/8=1,10=1,25=1,30=1/1,2,3,16;
 1/10=4,30=1/3;
 99//99;
 --------------
 nP_EB11K_above
 --------------
 Structure from the checkpoint file:  "nP_EB11K_above.chk"
 Charge =  1 Multiplicity = 1
 Redundant internal coordinates found in file.
 N,0,-2.8946167047,12.4622798957,12.512572697
 C,0,-3.7370589512,13.6314002686,12.1580894007
 C,0,-3.0077431764,14.9312142193,12.5375951731
 O,0,-2.5484505786,15.1763389467,13.6482596843
 C,0,-2.858457787,12.0121734108,13.9187042967
 C,0,-5.1544967835,13.5660275944,12.8012746344
 C,0,-5.9081553275,12.3103699022,12.3266938007
 C,0,-5.9646833233,14.8356054474,12.4740893745
 O,0,-2.9581043895,15.7838940586,11.4776847056
 C,0,-1.407032869,10.5970788921,11.7217259378
 C,0,-2.0552710415,11.986142076,11.5418729948
 O,0,-1.8704045221,12.5963972851,10.4625095858
 C,0,-1.9540397518,9.6048125581,10.6674260348
 C,0,-3.4841788882,9.4684425758,10.7875634214
 C,0,-1.2703918096,8.232189237,10.7992680258
 C,0,-2.357966303,17.0994170258,11.7176031996
 O,0,0.0304611098,10.7339483262,11.4703415768
 O,0,-0.4054077823,16.4936978689,10.4460470436
 O,0,2.2132420356,13.2683618885,10.4324950602
 O,0,2.2041757397,15.8376461082,13.6113523815
 O,0,0.3836249243,11.3486170058,13.6492905572
 N,0,2.8768677242,12.4486313916,12.471343772
 N,0,0.0083429816,17.474963094,12.4787370371
 C,0,2.2921652892,11.1300682913,12.1227087886
 C,0,1.4377899253,17.6166947831,12.1060347969
 C,0,0.8084506096,11.0974524768,12.5261637017
 C,0,2.2014645014,16.3388579632,12.4917052498
 C,0,3.2615232402,12.7021767461,13.8740910042
 C,0,-0.3810532838,17.6819572686,13.8879638886
 C,0,3.0806016808,9.942710426,12.7506112673
 C,0,2.0977454113,18.8827919077,12.7281979593
 C,0,4.5370990253,9.9342505145,12.2518163929
 C,0,1.3852028228,20.15977504,12.2465757906
 C,0,2.3945588168,8.6001832376,12.4307460891
 C,0,3.5985674135,18.9423996937,12.3824056952
 O,0,2.8916973067,15.8489247435,11.4260526674
 C,0,3.7304084886,14.6718539798,11.6687242422
 C,0,2.8500994332,13.4151349562,11.5022994057
 C,0,-0.832434986,16.970169803,11.5241136856
 C,0,4.8504198078,14.6901318001,10.6007624309
 C,0,-2.9555785942,18.0651599957,10.6661020795
 C,0,5.7472229907,13.4433240343,10.7277571206
 C,0,-2.325544541,19.4658958222,10.7916452176
 C,0,5.6869043677,15.9779003212,10.7039981673
 C,0,-4.4871724784,18.1411899851,10.7969508104
 H,0,1.4628609865,17.7017805759,11.0082661934
 H,0,2.0101222984,18.8116328461,13.8288474343
 H,0,4.1601486708,18.0857460784,12.7938414124
 H,0,3.7562690738,18.9659821587,11.2884774397
 H,0,4.0418477752,19.8607189088,12.8043729669
 H,0,1.8297529356,21.0472998131,12.7296329032
 H,0,1.4970844229,20.2821572345,11.1531344977
 H,0,0.3068138573,20.1542446043,12.4783702557
 H,0,4.1643145688,14.760550724,12.676251789
 H,0,4.3463047915,14.662434675,9.6158844122
 H,0,6.460016546,15.9880977871,9.9158798833
 H,0,5.0660011954,16.8800047287,10.5834490178
 H,0,6.2040863927,16.039888072,11.6800196308
 H,0,6.2184847892,13.386966436,11.7270636418
 H,0,5.1912743609,12.5062861415,10.5542209486
 H,0,6.55937006,13.4904516933,9.9821285891
 H,0,4.2936876375,12.3725074366,14.0863825867
 H,0,3.1436889399,13.770734155,14.1001849612
 H,0,2.5599341378,12.1542531171,14.5207085522
 H,0,2.3400481243,11.0537227519,11.0252384731
 H,0,3.0746965685,10.0681475363,13.8499723586
 H,0,2.9833723672,7.7699596387,12.8572432072
 H,0,1.3782192995,8.5358980265,12.8564504959
 H,0,2.3248278961,8.4358472615,11.3397067827
 H,0,4.5763451072,9.7715434135,11.158505542
 H,0,5.0638340595,10.8779807409,12.4727378437
 H,0,5.0980249497,9.1140832701,12.7327590607
 H,0,-1.5433962382,10.1881594516,12.7344057352
 H,0,-1.7153939557,10.0358477829,9.6764428368
 H,0,-0.1765415677,8.3078563583,10.6905941989
 H,0,-1.4909877649,7.7702575768,11.7800921958
 H,0,-1.6444925404,7.5486718038,10.0170933213
 H,0,-3.7778178676,9.1114842145,11.7925024492
 H,0,-4.0066245816,10.420410352,10.5923214079
 H,0,-3.8521391208,8.730675312,10.054071241
 H,0,-1.8668004197,11.5972018098,14.1459822204
 H,0,-2.995427611,12.894773926,14.5607109442
 H,0,-3.6468003055,11.2703439389,14.1367193998
 H,0,-6.0826405213,14.9659065137,11.3827015739
 H,0,-6.9742723439,14.7559578123,12.9126115894
 H,0,-5.4989070162,15.7490030942,12.8828538963
 H,0,-5.3614419665,11.3801256631,12.5552340864
 H,0,-6.894777724,12.2515548547,12.8183038137
 H,0,-6.0791946577,12.3446510294,11.2345211759
 H,0,-5.03257291,13.5215298792,13.9000724574
 H,0,-3.8397814488,13.6151148381,11.0616820128
 H,0,-2.6350519947,17.4240453497,12.7319252233
 H,0,-2.6960063268,17.649638537,9.6737179637
 H,0,-4.7827807713,18.553268561,11.7802191666
 H,0,-4.8981641793,18.8078661376,10.0188266597
 H,0,-4.9571486931,17.1515038743,10.6809713336
 H,0,-1.2388162919,19.4559459273,10.6013644326
 H,0,-2.7852386077,20.1491283362,10.0570046254
 H,0,-2.4981275076,19.8953937005,11.7966453884
 H,0,0.4586096589,17.3604013224,14.5217612454
 H,0,-0.6207322281,18.7387574708,14.0998240389
 H,0,-1.2361389227,17.0363140043,14.1309874985
 K,0,-0.0352661601,14.1273088757,9.3687881404
 Recover connectivity data from disk.

 GradGradGradGradGradGradGradGradGradGradGradGradGradGradGradGradGradGrad
 Berny optimization.
 Initialization pass.
                           ----------------------------
                           !    Initial Parameters    !
                           ! (Angstroms and Degrees)  !
 --------------------------                            --------------------------
 ! Name  Definition              Value          Derivative Info.                !
 --------------------------------------------------------------------------------
 ! R1    R(1,2)                  1.484          calculate D2E/DX2 analytically  !
 ! R2    R(1,5)                  1.4769         calculate D2E/DX2 analytically  !
 ! R3    R(1,11)                 1.3687         calculate D2E/DX2 analytically  !
 ! R4    R(2,3)                  1.538          calculate D2E/DX2 analytically  !
 ! R5    R(2,6)                  1.5579         calculate D2E/DX2 analytically  !
 ! R6    R(2,91)                 1.1013         calculate D2E/DX2 analytically  !
 ! R7    R(3,4)                  1.2266         calculate D2E/DX2 analytically  !
 ! R8    R(3,9)                  1.3612         calculate D2E/DX2 analytically  !
 ! R9    R(5,81)                 1.0987         calculate D2E/DX2 analytically  !
 ! R10   R(5,82)                 1.1            calculate D2E/DX2 analytically  !
 ! R11   R(5,83)                 1.1042         calculate D2E/DX2 analytically  !
 ! R12   R(6,7)                  1.5394         calculate D2E/DX2 analytically  !
 ! R13   R(6,8)                  1.5412         calculate D2E/DX2 analytically  !
 ! R14   R(6,90)                 1.1064         calculate D2E/DX2 analytically  !
 ! R15   R(7,87)                 1.1029         calculate D2E/DX2 analytically  !
 ! R16   R(7,88)                 1.1039         calculate D2E/DX2 analytically  !
 ! R17   R(7,89)                 1.106          calculate D2E/DX2 analytically  !
 ! R18   R(8,84)                 1.1054         calculate D2E/DX2 analytically  !
 ! R19   R(8,85)                 1.1036         calculate D2E/DX2 analytically  !
 ! R20   R(8,86)                 1.1038         calculate D2E/DX2 analytically  !
 ! R21   R(9,16)                 1.4657         calculate D2E/DX2 analytically  !
 ! R22   R(10,11)                1.5434         calculate D2E/DX2 analytically  !
 ! R23   R(10,13)                1.5477         calculate D2E/DX2 analytically  !
 ! R24   R(10,17)                1.4657         calculate D2E/DX2 analytically  !
 ! R25   R(10,73)                1.1006         calculate D2E/DX2 analytically  !
 ! R26   R(11,12)                1.2536         calculate D2E/DX2 analytically  !
 ! R27   R(12,103)               2.6282         calculate D2E/DX2 analytically  !
 ! R28   R(13,14)                1.5409         calculate D2E/DX2 analytically  !
 ! R29   R(13,15)                1.5391         calculate D2E/DX2 analytically  !
 ! R30   R(13,74)                1.1067         calculate D2E/DX2 analytically  !
 ! R31   R(14,78)                1.1061         calculate D2E/DX2 analytically  !
 ! R32   R(14,79)                1.1033         calculate D2E/DX2 analytically  !
 ! R33   R(14,80)                1.1035         calculate D2E/DX2 analytically  !
 ! R34   R(15,75)                1.1018         calculate D2E/DX2 analytically  !
 ! R35   R(15,76)                1.1064         calculate D2E/DX2 analytically  !
 ! R36   R(15,77)                1.1041         calculate D2E/DX2 analytically  !
 ! R37   R(16,39)                1.5432         calculate D2E/DX2 analytically  !
 ! R38   R(16,41)                1.5477         calculate D2E/DX2 analytically  !
 ! R39   R(16,92)                1.1005         calculate D2E/DX2 analytically  !
 ! R40   R(17,26)                1.3609         calculate D2E/DX2 analytically  !
 ! R41   R(18,39)                1.2536         calculate D2E/DX2 analytically  !
 ! R42   R(18,103)               2.6263         calculate D2E/DX2 analytically  !
 ! R43   R(19,38)                1.2536         calculate D2E/DX2 analytically  !
 ! R44   R(19,103)               2.6315         calculate D2E/DX2 analytically  !
 ! R45   R(20,27)                1.2267         calculate D2E/DX2 analytically  !
 ! R46   R(21,26)                1.2268         calculate D2E/DX2 analytically  !
 ! R47   R(22,24)                1.4839         calculate D2E/DX2 analytically  !
 ! R48   R(22,28)                1.4765         calculate D2E/DX2 analytically  !
 ! R49   R(22,38)                1.3689         calculate D2E/DX2 analytically  !
 ! R50   R(23,25)                1.484          calculate D2E/DX2 analytically  !
 ! R51   R(23,29)                1.4766         calculate D2E/DX2 analytically  !
 ! R52   R(23,39)                1.3686         calculate D2E/DX2 analytically  !
 ! R53   R(24,26)                1.5379         calculate D2E/DX2 analytically  !
 ! R54   R(24,30)                1.5575         calculate D2E/DX2 analytically  !
 ! R55   R(24,65)                1.1012         calculate D2E/DX2 analytically  !
 ! R56   R(25,27)                1.5378         calculate D2E/DX2 analytically  !
 ! R57   R(25,31)                1.5574         calculate D2E/DX2 analytically  !
 ! R58   R(25,46)                1.1013         calculate D2E/DX2 analytically  !
 ! R59   R(27,36)                1.3609         calculate D2E/DX2 analytically  !
 ! R60   R(28,62)                1.1041         calculate D2E/DX2 analytically  !
 ! R61   R(28,63)                1.0986         calculate D2E/DX2 analytically  !
 ! R62   R(28,64)                1.1003         calculate D2E/DX2 analytically  !
 ! R63   R(29,100)               1.1001         calculate D2E/DX2 analytically  !
 ! R64   R(29,101)               1.1042         calculate D2E/DX2 analytically  !
 ! R65   R(29,102)               1.0987         calculate D2E/DX2 analytically  !
 ! R66   R(30,32)                1.5396         calculate D2E/DX2 analytically  !
 ! R67   R(30,34)                1.5412         calculate D2E/DX2 analytically  !
 ! R68   R(30,66)                1.1065         calculate D2E/DX2 analytically  !
 ! R69   R(31,33)                1.5396         calculate D2E/DX2 analytically  !
 ! R70   R(31,35)                1.5413         calculate D2E/DX2 analytically  !
 ! R71   R(31,47)                1.1064         calculate D2E/DX2 analytically  !
 ! R72   R(32,70)                1.106          calculate D2E/DX2 analytically  !
 ! R73   R(32,71)                1.1031         calculate D2E/DX2 analytically  !
 ! R74   R(32,72)                1.1039         calculate D2E/DX2 analytically  !
 ! R75   R(33,51)                1.1039         calculate D2E/DX2 analytically  !
 ! R76   R(33,52)                1.1059         calculate D2E/DX2 analytically  !
 ! R77   R(33,53)                1.103          calculate D2E/DX2 analytically  !
 ! R78   R(34,67)                1.1036         calculate D2E/DX2 analytically  !
 ! R79   R(34,68)                1.1038         calculate D2E/DX2 analytically  !
 ! R80   R(34,69)                1.1055         calculate D2E/DX2 analytically  !
 ! R81   R(35,48)                1.1039         calculate D2E/DX2 analytically  !
 ! R82   R(35,49)                1.1055         calculate D2E/DX2 analytically  !
 ! R83   R(35,50)                1.1036         calculate D2E/DX2 analytically  !
 ! R84   R(36,37)                1.4655         calculate D2E/DX2 analytically  !
 ! R85   R(37,38)                1.5434         calculate D2E/DX2 analytically  !
 ! R86   R(37,40)                1.5477         calculate D2E/DX2 analytically  !
 ! R87   R(37,54)                1.1006         calculate D2E/DX2 analytically  !
 ! R88   R(40,42)                1.5411         calculate D2E/DX2 analytically  !
 ! R89   R(40,44)                1.5391         calculate D2E/DX2 analytically  !
 ! R90   R(40,55)                1.1067         calculate D2E/DX2 analytically  !
 ! R91   R(41,43)                1.541          calculate D2E/DX2 analytically  !
 ! R92   R(41,45)                1.5391         calculate D2E/DX2 analytically  !
 ! R93   R(41,93)                1.1067         calculate D2E/DX2 analytically  !
 ! R94   R(42,59)                1.1063         calculate D2E/DX2 analytically  !
 ! R95   R(42,60)                1.1033         calculate D2E/DX2 analytically  !
 ! R96   R(42,61)                1.1035         calculate D2E/DX2 analytically  !
 ! R97   R(43,97)                1.1033         calculate D2E/DX2 analytically  !
 ! R98   R(43,98)                1.1035         calculate D2E/DX2 analytically  !
 ! R99   R(43,99)                1.1065         calculate D2E/DX2 analytically  !
 ! R100  R(44,56)                1.1041         calculate D2E/DX2 analytically  !
 ! R101  R(44,57)                1.1017         calculate D2E/DX2 analytically  !
 ! R102  R(44,58)                1.1063         calculate D2E/DX2 analytically  !
 ! R103  R(45,94)                1.1063         calculate D2E/DX2 analytically  !
 ! R104  R(45,95)                1.104          calculate D2E/DX2 analytically  !
 ! R105  R(45,96)                1.1017         calculate D2E/DX2 analytically  !
 ! A1    A(2,1,5)              118.7795         calculate D2E/DX2 analytically  !
 ! A2    A(2,1,11)             116.9216         calculate D2E/DX2 analytically  !
 ! A3    A(5,1,11)             123.6551         calculate D2E/DX2 analytically  !
 ! A4    A(1,2,3)              109.7354         calculate D2E/DX2 analytically  !
 ! A5    A(1,2,6)              112.6328         calculate D2E/DX2 analytically  !
 ! A6    A(1,2,91)             106.2068         calculate D2E/DX2 analytically  !
 ! A7    A(3,2,6)              111.4095         calculate D2E/DX2 analytically  !
 ! A8    A(3,2,91)             107.6004         calculate D2E/DX2 analytically  !
 ! A9    A(6,2,91)             108.9973         calculate D2E/DX2 analytically  !
 ! A10   A(2,3,4)              124.7412         calculate D2E/DX2 analytically  !
 ! A11   A(2,3,9)              110.7662         calculate D2E/DX2 analytically  !
 ! A12   A(4,3,9)              124.4857         calculate D2E/DX2 analytically  !
 ! A13   A(1,5,81)             109.5208         calculate D2E/DX2 analytically  !
 ! A14   A(1,5,82)             107.9457         calculate D2E/DX2 analytically  !
 ! A15   A(1,5,83)             112.0398         calculate D2E/DX2 analytically  !
 ! A16   A(81,5,82)            107.1395         calculate D2E/DX2 analytically  !
 ! A17   A(81,5,83)            110.4739         calculate D2E/DX2 analytically  !
 ! A18   A(82,5,83)            109.5674         calculate D2E/DX2 analytically  !
 ! A19   A(2,6,7)              110.6325         calculate D2E/DX2 analytically  !
 ! A20   A(2,6,8)              110.8593         calculate D2E/DX2 analytically  !
 ! A21   A(2,6,90)             108.1454         calculate D2E/DX2 analytically  !
 ! A22   A(7,6,8)              110.4324         calculate D2E/DX2 analytically  !
 ! A23   A(7,6,90)             109.1047         calculate D2E/DX2 analytically  !
 ! A24   A(8,6,90)             107.5709         calculate D2E/DX2 analytically  !
 ! A25   A(6,7,87)             112.4199         calculate D2E/DX2 analytically  !
 ! A26   A(6,7,88)             110.104          calculate D2E/DX2 analytically  !
 ! A27   A(6,7,89)             110.7841         calculate D2E/DX2 analytically  !
 ! A28   A(87,7,88)            107.8071         calculate D2E/DX2 analytically  !
 ! A29   A(87,7,89)            107.9034         calculate D2E/DX2 analytically  !
 ! A30   A(88,7,89)            107.6502         calculate D2E/DX2 analytically  !
 ! A31   A(6,8,84)             111.2713         calculate D2E/DX2 analytically  !
 ! A32   A(6,8,85)             109.7004         calculate D2E/DX2 analytically  !
 ! A33   A(6,8,86)             112.4098         calculate D2E/DX2 analytically  !
 ! A34   A(84,8,85)            107.6496         calculate D2E/DX2 analytically  !
 ! A35   A(84,8,86)            108.2466         calculate D2E/DX2 analytically  !
 ! A36   A(85,8,86)            107.374          calculate D2E/DX2 analytically  !
 ! A37   A(3,9,16)             116.7241         calculate D2E/DX2 analytically  !
 ! A38   A(11,10,13)           110.4378         calculate D2E/DX2 analytically  !
 ! A39   A(11,10,17)           107.9323         calculate D2E/DX2 analytically  !
 ! A40   A(11,10,73)           112.9279         calculate D2E/DX2 analytically  !
 ! A41   A(13,10,17)           106.8378         calculate D2E/DX2 analytically  !
 ! A42   A(13,10,73)           110.1691         calculate D2E/DX2 analytically  !
 ! A43   A(17,10,73)           108.3014         calculate D2E/DX2 analytically  !
 ! A44   A(1,11,10)            119.209          calculate D2E/DX2 analytically  !
 ! A45   A(1,11,12)            122.1199         calculate D2E/DX2 analytically  !
 ! A46   A(10,11,12)           118.4575         calculate D2E/DX2 analytically  !
 ! A47   A(11,12,103)          138.1421         calculate D2E/DX2 analytically  !
 ! A48   A(10,13,14)           110.7687         calculate D2E/DX2 analytically  !
 ! A49   A(10,13,15)           110.8813         calculate D2E/DX2 analytically  !
 ! A50   A(10,13,74)           106.5027         calculate D2E/DX2 analytically  !
 ! A51   A(14,13,15)           110.8228         calculate D2E/DX2 analytically  !
 ! A52   A(14,13,74)           108.5671         calculate D2E/DX2 analytically  !
 ! A53   A(15,13,74)           109.1638         calculate D2E/DX2 analytically  !
 ! A54   A(13,14,78)           111.2847         calculate D2E/DX2 analytically  !
 ! A55   A(13,14,79)           112.3374         calculate D2E/DX2 analytically  !
 ! A56   A(13,14,80)           109.7835         calculate D2E/DX2 analytically  !
 ! A57   A(78,14,79)           108.2706         calculate D2E/DX2 analytically  !
 ! A58   A(78,14,80)           107.4344         calculate D2E/DX2 analytically  !
 ! A59   A(79,14,80)           107.538          calculate D2E/DX2 analytically  !
 ! A60   A(13,15,75)           111.794          calculate D2E/DX2 analytically  !
 ! A61   A(13,15,76)           111.0838         calculate D2E/DX2 analytically  !
 ! A62   A(13,15,77)           109.9337         calculate D2E/DX2 analytically  !
 ! A63   A(75,15,76)           108.3036         calculate D2E/DX2 analytically  !
 ! A64   A(75,15,77)           108.0006         calculate D2E/DX2 analytically  !
 ! A65   A(76,15,77)           107.5787         calculate D2E/DX2 analytically  !
 ! A66   A(9,16,39)            108.0034         calculate D2E/DX2 analytically  !
 ! A67   A(9,16,41)            106.9018         calculate D2E/DX2 analytically  !
 ! A68   A(9,16,92)            108.2126         calculate D2E/DX2 analytically  !
 ! A69   A(39,16,41)           110.413          calculate D2E/DX2 analytically  !
 ! A70   A(39,16,92)           112.904          calculate D2E/DX2 analytically  !
 ! A71   A(41,16,92)           110.1767         calculate D2E/DX2 analytically  !
 ! A72   A(10,17,26)           116.9063         calculate D2E/DX2 analytically  !
 ! A73   A(39,18,103)          138.0056         calculate D2E/DX2 analytically  !
 ! A74   A(38,19,103)          137.7985         calculate D2E/DX2 analytically  !
 ! A75   A(24,22,28)           118.5844         calculate D2E/DX2 analytically  !
 ! A76   A(24,22,38)           116.9585         calculate D2E/DX2 analytically  !
 ! A77   A(28,22,38)           123.8075         calculate D2E/DX2 analytically  !
 ! A78   A(25,23,29)           118.7053         calculate D2E/DX2 analytically  !
 ! A79   A(25,23,39)           116.859          calculate D2E/DX2 analytically  !
 ! A80   A(29,23,39)           123.7375         calculate D2E/DX2 analytically  !
 ! A81   A(22,24,26)           109.7151         calculate D2E/DX2 analytically  !
 ! A82   A(22,24,30)           112.5336         calculate D2E/DX2 analytically  !
 ! A83   A(22,24,65)           106.1782         calculate D2E/DX2 analytically  !
 ! A84   A(26,24,30)           111.4969         calculate D2E/DX2 analytically  !
 ! A85   A(26,24,65)           107.5739         calculate D2E/DX2 analytically  !
 ! A86   A(30,24,65)           109.0828         calculate D2E/DX2 analytically  !
 ! A87   A(23,25,27)           109.6331         calculate D2E/DX2 analytically  !
 ! A88   A(23,25,31)           112.6731         calculate D2E/DX2 analytically  !
 ! A89   A(23,25,46)           106.2383         calculate D2E/DX2 analytically  !
 ! A90   A(27,25,31)           111.4009         calculate D2E/DX2 analytically  !
 ! A91   A(27,25,46)           107.6302         calculate D2E/DX2 analytically  !
 ! A92   A(31,25,46)           109.0098         calculate D2E/DX2 analytically  !
 ! A93   A(17,26,21)           124.5399         calculate D2E/DX2 analytically  !
 ! A94   A(17,26,24)           110.7104         calculate D2E/DX2 analytically  !
 ! A95   A(21,26,24)           124.7443         calculate D2E/DX2 analytically  !
 ! A96   A(20,27,25)           124.7164         calculate D2E/DX2 analytically  !
 ! A97   A(20,27,36)           124.5057         calculate D2E/DX2 analytically  !
 ! A98   A(25,27,36)           110.771          calculate D2E/DX2 analytically  !
 ! A99   A(22,28,62)           112.0206         calculate D2E/DX2 analytically  !
 ! A100  A(22,28,63)           109.5498         calculate D2E/DX2 analytically  !
 ! A101  A(22,28,64)           107.8611         calculate D2E/DX2 analytically  !
 ! A102  A(62,28,63)           110.5561         calculate D2E/DX2 analytically  !
 ! A103  A(62,28,64)           109.5366         calculate D2E/DX2 analytically  !
 ! A104  A(63,28,64)           107.1604         calculate D2E/DX2 analytically  !
 ! A105  A(23,29,100)          107.9142         calculate D2E/DX2 analytically  !
 ! A106  A(23,29,101)          111.9953         calculate D2E/DX2 analytically  !
 ! A107  A(23,29,102)          109.5096         calculate D2E/DX2 analytically  !
 ! A108  A(100,29,101)         109.5671         calculate D2E/DX2 analytically  !
 ! A109  A(100,29,102)         107.1479         calculate D2E/DX2 analytically  !
 ! A110  A(101,29,102)         110.5526         calculate D2E/DX2 analytically  !
 ! A111  A(24,30,32)           110.6396         calculate D2E/DX2 analytically  !
 ! A112  A(24,30,34)           110.7979         calculate D2E/DX2 analytically  !
 ! A113  A(24,30,66)           108.1452         calculate D2E/DX2 analytically  !
 ! A114  A(32,30,34)           110.4315         calculate D2E/DX2 analytically  !
 ! A115  A(32,30,66)           109.1209         calculate D2E/DX2 analytically  !
 ! A116  A(34,30,66)           107.6122         calculate D2E/DX2 analytically  !
 ! A117  A(25,31,33)           110.6825         calculate D2E/DX2 analytically  !
 ! A118  A(25,31,35)           110.7586         calculate D2E/DX2 analytically  !
 ! A119  A(25,31,47)           108.1527         calculate D2E/DX2 analytically  !
 ! A120  A(33,31,35)           110.3894         calculate D2E/DX2 analytically  !
 ! A121  A(33,31,47)           109.1403         calculate D2E/DX2 analytically  !
 ! A122  A(35,31,47)           107.6249         calculate D2E/DX2 analytically  !
 ! A123  A(30,32,70)           110.7708         calculate D2E/DX2 analytically  !
 ! A124  A(30,32,71)           112.4667         calculate D2E/DX2 analytically  !
 ! A125  A(30,32,72)           110.099          calculate D2E/DX2 analytically  !
 ! A126  A(70,32,71)           107.8707         calculate D2E/DX2 analytically  !
 ! A127  A(70,32,72)           107.6577         calculate D2E/DX2 analytically  !
 ! A128  A(71,32,72)           107.8023         calculate D2E/DX2 analytically  !
 ! A129  A(31,33,51)           110.0947         calculate D2E/DX2 analytically  !
 ! A130  A(31,33,52)           110.7475         calculate D2E/DX2 analytically  !
 ! A131  A(31,33,53)           112.4932         calculate D2E/DX2 analytically  !
 ! A132  A(51,33,52)           107.6335         calculate D2E/DX2 analytically  !
 ! A133  A(51,33,53)           107.8049         calculate D2E/DX2 analytically  !
 ! A134  A(52,33,53)           107.8921         calculate D2E/DX2 analytically  !
 ! A135  A(30,34,67)           109.7314         calculate D2E/DX2 analytically  !
 ! A136  A(30,34,68)           112.3684         calculate D2E/DX2 analytically  !
 ! A137  A(30,34,69)           111.2462         calculate D2E/DX2 analytically  !
 ! A138  A(67,34,68)           107.3627         calculate D2E/DX2 analytically  !
 ! A139  A(67,34,69)           107.6513         calculate D2E/DX2 analytically  !
 ! A140  A(68,34,69)           108.2936         calculate D2E/DX2 analytically  !
 ! A141  A(31,35,48)           112.4421         calculate D2E/DX2 analytically  !
 ! A142  A(31,35,49)           111.207          calculate D2E/DX2 analytically  !
 ! A143  A(31,35,50)           109.7264         calculate D2E/DX2 analytically  !
 ! A144  A(48,35,49)           108.2285         calculate D2E/DX2 analytically  !
 ! A145  A(48,35,50)           107.3923         calculate D2E/DX2 analytically  !
 ! A146  A(49,35,50)           107.6568         calculate D2E/DX2 analytically  !
 ! A147  A(27,36,37)           116.7268         calculate D2E/DX2 analytically  !
 ! A148  A(36,37,38)           108.042          calculate D2E/DX2 analytically  !
 ! A149  A(36,37,40)           106.8821         calculate D2E/DX2 analytically  !
 ! A150  A(36,37,54)           108.2091         calculate D2E/DX2 analytically  !
 ! A151  A(38,37,40)           110.3637         calculate D2E/DX2 analytically  !
 ! A152  A(38,37,54)           112.9057         calculate D2E/DX2 analytically  !
 ! A153  A(40,37,54)           110.2088         calculate D2E/DX2 analytically  !
 ! A154  A(19,38,22)           122.0977         calculate D2E/DX2 analytically  !
 ! A155  A(19,38,37)           118.4969         calculate D2E/DX2 analytically  !
 ! A156  A(22,38,37)           119.1713         calculate D2E/DX2 analytically  !
 ! A157  A(16,39,18)           118.4501         calculate D2E/DX2 analytically  !
 ! A158  A(16,39,23)           119.2726         calculate D2E/DX2 analytically  !
 ! A159  A(18,39,23)           122.0569         calculate D2E/DX2 analytically  !
 ! A160  A(37,40,42)           110.7757         calculate D2E/DX2 analytically  !
 ! A161  A(37,40,44)           110.9108         calculate D2E/DX2 analytically  !
 ! A162  A(37,40,55)           106.5072         calculate D2E/DX2 analytically  !
 ! A163  A(42,40,44)           110.8021         calculate D2E/DX2 analytically  !
 ! A164  A(42,40,55)           108.5512         calculate D2E/DX2 analytically  !
 ! A165  A(44,40,55)           109.1591         calculate D2E/DX2 analytically  !
 ! A166  A(16,41,43)           110.7297         calculate D2E/DX2 analytically  !
 ! A167  A(16,41,45)           110.9354         calculate D2E/DX2 analytically  !
 ! A168  A(16,41,93)           106.5205         calculate D2E/DX2 analytically  !
 ! A169  A(43,41,45)           110.7953         calculate D2E/DX2 analytically  !
 ! A170  A(43,41,93)           108.5679         calculate D2E/DX2 analytically  !
 ! A171  A(45,41,93)           109.1586         calculate D2E/DX2 analytically  !
 ! A172  A(40,42,59)           111.3182         calculate D2E/DX2 analytically  !
 ! A173  A(40,42,60)           112.392          calculate D2E/DX2 analytically  !
 ! A174  A(40,42,61)           109.7579         calculate D2E/DX2 analytically  !
 ! A175  A(59,42,60)           108.2684         calculate D2E/DX2 analytically  !
 ! A176  A(59,42,61)           107.398          calculate D2E/DX2 analytically  !
 ! A177  A(60,42,61)           107.5084         calculate D2E/DX2 analytically  !
 ! A178  A(41,43,97)           112.3616         calculate D2E/DX2 analytically  !
 ! A179  A(41,43,98)           109.7684         calculate D2E/DX2 analytically  !
 ! A180  A(41,43,99)           111.2881         calculate D2E/DX2 analytically  !
 ! A181  A(97,43,98)           107.5221         calculate D2E/DX2 analytically  !
 ! A182  A(97,43,99)           108.2872         calculate D2E/DX2 analytically  !
 ! A183  A(98,43,99)           107.4191         calculate D2E/DX2 analytically  !
 ! A184  A(40,44,56)           109.9032         calculate D2E/DX2 analytically  !
 ! A185  A(40,44,57)           111.8061         calculate D2E/DX2 analytically  !
 ! A186  A(40,44,58)           111.1086         calculate D2E/DX2 analytically  !
 ! A187  A(56,44,57)           107.9969         calculate D2E/DX2 analytically  !
 ! A188  A(56,44,58)           107.5716         calculate D2E/DX2 analytically  !
 ! A189  A(57,44,58)           108.3069         calculate D2E/DX2 analytically  !
 ! A190  A(41,45,94)           111.0915         calculate D2E/DX2 analytically  !
 ! A191  A(41,45,95)           109.8997         calculate D2E/DX2 analytically  !
 ! A192  A(41,45,96)           111.7888         calculate D2E/DX2 analytically  !
 ! A193  A(94,45,95)           107.5787         calculate D2E/DX2 analytically  !
 ! A194  A(94,45,96)           108.3106         calculate D2E/DX2 analytically  !
 ! A195  A(95,45,96)           108.0264         calculate D2E/DX2 analytically  !
 ! A196  A(12,103,18)          104.8176         calculate D2E/DX2 analytically  !
 ! A197  A(12,103,19)          103.7844         calculate D2E/DX2 analytically  !
 ! A198  A(18,103,19)          104.4021         calculate D2E/DX2 analytically  !
 ! D1    D(5,1,2,3)             79.4152         calculate D2E/DX2 analytically  !
 ! D2    D(5,1,2,6)            -45.317          calculate D2E/DX2 analytically  !
 ! D3    D(5,1,2,91)          -164.5567         calculate D2E/DX2 analytically  !
 ! D4    D(11,1,2,3)           -91.728          calculate D2E/DX2 analytically  !
 ! D5    D(11,1,2,6)           143.5398         calculate D2E/DX2 analytically  !
 ! D6    D(11,1,2,91)           24.3002         calculate D2E/DX2 analytically  !
 ! D7    D(2,1,5,81)          -147.7224         calculate D2E/DX2 analytically  !
 ! D8    D(2,1,5,82)           -31.3961         calculate D2E/DX2 analytically  !
 ! D9    D(2,1,5,83)            89.3284         calculate D2E/DX2 analytically  !
 ! D10   D(11,1,5,81)           22.7848         calculate D2E/DX2 analytically  !
 ! D11   D(11,1,5,82)          139.1111         calculate D2E/DX2 analytically  !
 ! D12   D(11,1,5,83)         -100.1643         calculate D2E/DX2 analytically  !
 ! D13   D(2,1,11,10)         -165.7686         calculate D2E/DX2 analytically  !
 ! D14   D(2,1,11,12)            8.8366         calculate D2E/DX2 analytically  !
 ! D15   D(5,1,11,10)           23.5615         calculate D2E/DX2 analytically  !
 ! D16   D(5,1,11,12)         -161.8334         calculate D2E/DX2 analytically  !
 ! D17   D(1,2,3,4)            -53.1515         calculate D2E/DX2 analytically  !
 ! D18   D(1,2,3,9)            127.7704         calculate D2E/DX2 analytically  !
 ! D19   D(6,2,3,4)             72.2852         calculate D2E/DX2 analytically  !
 ! D20   D(6,2,3,9)           -106.7929         calculate D2E/DX2 analytically  !
 ! D21   D(91,2,3,4)          -168.2951         calculate D2E/DX2 analytically  !
 ! D22   D(91,2,3,9)            12.6268         calculate D2E/DX2 analytically  !
 ! D23   D(1,2,6,7)            -60.402          calculate D2E/DX2 analytically  !
 ! D24   D(1,2,6,8)            176.7326         calculate D2E/DX2 analytically  !
 ! D25   D(1,2,6,90)            59.0324         calculate D2E/DX2 analytically  !
 ! D26   D(3,2,6,7)            175.7879         calculate D2E/DX2 analytically  !
 ! D27   D(3,2,6,8)             52.9225         calculate D2E/DX2 analytically  !
 ! D28   D(3,2,6,90)           -64.7778         calculate D2E/DX2 analytically  !
 ! D29   D(91,2,6,7)            57.2015         calculate D2E/DX2 analytically  !
 ! D30   D(91,2,6,8)           -65.6638         calculate D2E/DX2 analytically  !
 ! D31   D(91,2,6,90)          176.6359         calculate D2E/DX2 analytically  !
 ! D32   D(2,3,9,16)           176.5458         calculate D2E/DX2 analytically  !
 ! D33   D(4,3,9,16)            -2.5352         calculate D2E/DX2 analytically  !
 ! D34   D(2,6,7,87)            57.5302         calculate D2E/DX2 analytically  !
 ! D35   D(2,6,7,88)           177.7486         calculate D2E/DX2 analytically  !
 ! D36   D(2,6,7,89)           -63.2863         calculate D2E/DX2 analytically  !
 ! D37   D(8,6,7,87)          -179.3567         calculate D2E/DX2 analytically  !
 ! D38   D(8,6,7,88)           -59.1382         calculate D2E/DX2 analytically  !
 ! D39   D(8,6,7,89)            59.8269         calculate D2E/DX2 analytically  !
 ! D40   D(90,6,7,87)          -61.3244         calculate D2E/DX2 analytically  !
 ! D41   D(90,6,7,88)           58.894          calculate D2E/DX2 analytically  !
 ! D42   D(90,6,7,89)          177.8592         calculate D2E/DX2 analytically  !
 ! D43   D(2,6,8,84)            59.2953         calculate D2E/DX2 analytically  !
 ! D44   D(2,6,8,85)           178.3067         calculate D2E/DX2 analytically  !
 ! D45   D(2,6,8,86)           -62.3045         calculate D2E/DX2 analytically  !
 ! D46   D(7,6,8,84)           -63.6858         calculate D2E/DX2 analytically  !
 ! D47   D(7,6,8,85)            55.3256         calculate D2E/DX2 analytically  !
 ! D48   D(7,6,8,86)           174.7144         calculate D2E/DX2 analytically  !
 ! D49   D(90,6,8,84)          177.3456         calculate D2E/DX2 analytically  !
 ! D50   D(90,6,8,85)          -63.6431         calculate D2E/DX2 analytically  !
 ! D51   D(90,6,8,86)           55.7457         calculate D2E/DX2 analytically  !
 ! D52   D(3,9,16,39)           86.1001         calculate D2E/DX2 analytically  !
 ! D53   D(3,9,16,41)         -155.0807         calculate D2E/DX2 analytically  !
 ! D54   D(3,9,16,92)          -36.4295         calculate D2E/DX2 analytically  !
 ! D55   D(13,10,11,1)         112.9553         calculate D2E/DX2 analytically  !
 ! D56   D(13,10,11,12)        -61.8482         calculate D2E/DX2 analytically  !
 ! D57   D(17,10,11,1)        -130.5894         calculate D2E/DX2 analytically  !
 ! D58   D(17,10,11,12)         54.6071         calculate D2E/DX2 analytically  !
 ! D59   D(73,10,11,1)         -10.9033         calculate D2E/DX2 analytically  !
 ! D60   D(73,10,11,12)        174.2932         calculate D2E/DX2 analytically  !
 ! D61   D(11,10,13,14)        -58.9309         calculate D2E/DX2 analytically  !
 ! D62   D(11,10,13,15)        177.5934         calculate D2E/DX2 analytically  !
 ! D63   D(11,10,13,74)         58.9431         calculate D2E/DX2 analytically  !
 ! D64   D(17,10,13,14)       -176.0648         calculate D2E/DX2 analytically  !
 ! D65   D(17,10,13,15)         60.4595         calculate D2E/DX2 analytically  !
 ! D66   D(17,10,13,74)        -58.1908         calculate D2E/DX2 analytically  !
 ! D67   D(73,10,13,14)         66.5043         calculate D2E/DX2 analytically  !
 ! D68   D(73,10,13,15)        -56.9714         calculate D2E/DX2 analytically  !
 ! D69   D(73,10,13,74)       -175.6217         calculate D2E/DX2 analytically  !
 ! D70   D(11,10,17,26)         86.6745         calculate D2E/DX2 analytically  !
 ! D71   D(13,10,17,26)       -154.5488         calculate D2E/DX2 analytically  !
 ! D72   D(73,10,17,26)        -35.8944         calculate D2E/DX2 analytically  !
 ! D73   D(1,11,12,103)        102.7438         calculate D2E/DX2 analytically  !
 ! D74   D(10,11,12,103)       -82.6122         calculate D2E/DX2 analytically  !
 ! D75   D(11,12,103,18)       -78.7541         calculate D2E/DX2 analytically  !
 ! D76   D(11,12,103,19)        30.5033         calculate D2E/DX2 analytically  !
 ! D77   D(10,13,14,78)        -59.1409         calculate D2E/DX2 analytically  !
 ! D78   D(10,13,14,79)         62.4482         calculate D2E/DX2 analytically  !
 ! D79   D(10,13,14,80)       -177.9469         calculate D2E/DX2 analytically  !
 ! D80   D(15,13,14,78)         64.3684         calculate D2E/DX2 analytically  !
 ! D81   D(15,13,14,79)       -174.0425         calculate D2E/DX2 analytically  !
 ! D82   D(15,13,14,80)        -54.4376         calculate D2E/DX2 analytically  !
 ! D83   D(74,13,14,78)       -175.7479         calculate D2E/DX2 analytically  !
 ! D84   D(74,13,14,79)        -54.1588         calculate D2E/DX2 analytically  !
 ! D85   D(74,13,14,80)         65.4461         calculate D2E/DX2 analytically  !
 ! D86   D(10,13,15,75)        -57.9751         calculate D2E/DX2 analytically  !
 ! D87   D(10,13,15,76)         63.1329         calculate D2E/DX2 analytically  !
 ! D88   D(10,13,15,77)       -177.9113         calculate D2E/DX2 analytically  !
 ! D89   D(14,13,15,75)        178.5803         calculate D2E/DX2 analytically  !
 ! D90   D(14,13,15,76)        -60.3117         calculate D2E/DX2 analytically  !
 ! D91   D(14,13,15,77)         58.6441         calculate D2E/DX2 analytically  !
 ! D92   D(74,13,15,75)         59.0541         calculate D2E/DX2 analytically  !
 ! D93   D(74,13,15,76)       -179.8379         calculate D2E/DX2 analytically  !
 ! D94   D(74,13,15,77)        -60.8821         calculate D2E/DX2 analytically  !
 ! D95   D(9,16,39,18)          54.1557         calculate D2E/DX2 analytically  !
 ! D96   D(9,16,39,23)        -131.126          calculate D2E/DX2 analytically  !
 ! D97   D(41,16,39,18)        -62.4039         calculate D2E/DX2 analytically  !
 ! D98   D(41,16,39,23)        112.3145         calculate D2E/DX2 analytically  !
 ! D99   D(92,16,39,18)        173.764          calculate D2E/DX2 analytically  !
 ! D100  D(92,16,39,23)        -11.5177         calculate D2E/DX2 analytically  !
 ! D101  D(9,16,41,43)        -177.0145         calculate D2E/DX2 analytically  !
 ! D102  D(9,16,41,45)          59.5344         calculate D2E/DX2 analytically  !
 ! D103  D(9,16,41,93)         -59.1499         calculate D2E/DX2 analytically  !
 ! D104  D(39,16,41,43)        -59.7723         calculate D2E/DX2 analytically  !
 ! D105  D(39,16,41,45)        176.7766         calculate D2E/DX2 analytically  !
 ! D106  D(39,16,41,93)         58.0923         calculate D2E/DX2 analytically  !
 ! D107  D(92,16,41,43)         65.6199         calculate D2E/DX2 analytically  !
 ! D108  D(92,16,41,45)        -57.8312         calculate D2E/DX2 analytically  !
 ! D109  D(92,16,41,93)       -176.5155         calculate D2E/DX2 analytically  !
 ! D110  D(10,17,26,21)         -2.0167         calculate D2E/DX2 analytically  !
 ! D111  D(10,17,26,24)        177.172          calculate D2E/DX2 analytically  !
 ! D112  D(103,18,39,16)       -81.4127         calculate D2E/DX2 analytically  !
 ! D113  D(103,18,39,23)       104.0238         calculate D2E/DX2 analytically  !
 ! D114  D(39,18,103,12)        29.2411         calculate D2E/DX2 analytically  !
 ! D115  D(39,18,103,19)       -79.5667         calculate D2E/DX2 analytically  !
 ! D116  D(103,19,38,22)       104.2086         calculate D2E/DX2 analytically  !
 ! D117  D(103,19,38,37)       -81.4006         calculate D2E/DX2 analytically  !
 ! D118  D(38,19,103,12)       -80.4071         calculate D2E/DX2 analytically  !
 ! D119  D(38,19,103,18)        29.1576         calculate D2E/DX2 analytically  !
 ! D120  D(28,22,24,26)         79.1462         calculate D2E/DX2 analytically  !
 ! D121  D(28,22,24,30)        -45.6127         calculate D2E/DX2 analytically  !
 ! D122  D(28,22,24,65)       -164.8823         calculate D2E/DX2 analytically  !
 ! D123  D(38,22,24,26)        -91.9726         calculate D2E/DX2 analytically  !
 ! D124  D(38,22,24,30)        143.2685         calculate D2E/DX2 analytically  !
 ! D125  D(38,22,24,65)         23.9989         calculate D2E/DX2 analytically  !
 ! D126  D(24,22,28,62)         87.8047         calculate D2E/DX2 analytically  !
 ! D127  D(24,22,28,63)       -149.1335         calculate D2E/DX2 analytically  !
 ! D128  D(24,22,28,64)        -32.8138         calculate D2E/DX2 analytically  !
 ! D129  D(38,22,28,62)       -101.7282         calculate D2E/DX2 analytically  !
 ! D130  D(38,22,28,63)         21.3336         calculate D2E/DX2 analytically  !
 ! D131  D(38,22,28,64)        137.6533         calculate D2E/DX2 analytically  !
 ! D132  D(24,22,38,19)          9.103          calculate D2E/DX2 analytically  !
 ! D133  D(24,22,38,37)       -165.2512         calculate D2E/DX2 analytically  !
 ! D134  D(28,22,38,19)       -161.5069         calculate D2E/DX2 analytically  !
 ! D135  D(28,22,38,37)         24.139          calculate D2E/DX2 analytically  !
 ! D136  D(29,23,25,27)         79.3067         calculate D2E/DX2 analytically  !
 ! D137  D(29,23,25,31)        -45.3663         calculate D2E/DX2 analytically  !
 ! D138  D(29,23,25,46)       -164.6642         calculate D2E/DX2 analytically  !
 ! D139  D(39,23,25,27)        -91.4816         calculate D2E/DX2 analytically  !
 ! D140  D(39,23,25,31)        143.8454         calculate D2E/DX2 analytically  !
 ! D141  D(39,23,25,46)         24.5475         calculate D2E/DX2 analytically  !
 ! D142  D(25,23,29,100)       -31.6638         calculate D2E/DX2 analytically  !
 ! D143  D(25,23,29,101)        89.012          calculate D2E/DX2 analytically  !
 ! D144  D(25,23,29,102)      -147.9766         calculate D2E/DX2 analytically  !
 ! D145  D(39,23,29,100)       138.4474         calculate D2E/DX2 analytically  !
 ! D146  D(39,23,29,101)      -100.8767         calculate D2E/DX2 analytically  !
 ! D147  D(39,23,29,102)        22.1346         calculate D2E/DX2 analytically  !
 ! D148  D(25,23,39,16)       -165.9112         calculate D2E/DX2 analytically  !
 ! D149  D(25,23,39,18)          8.609          calculate D2E/DX2 analytically  !
 ! D150  D(29,23,39,16)         23.8094         calculate D2E/DX2 analytically  !
 ! D151  D(29,23,39,18)       -161.6704         calculate D2E/DX2 analytically  !
 ! D152  D(22,24,26,17)        126.644          calculate D2E/DX2 analytically  !
 ! D153  D(22,24,26,21)        -54.1694         calculate D2E/DX2 analytically  !
 ! D154  D(30,24,26,17)       -107.9998         calculate D2E/DX2 analytically  !
 ! D155  D(30,24,26,21)         71.1868         calculate D2E/DX2 analytically  !
 ! D156  D(65,24,26,17)         11.5591         calculate D2E/DX2 analytically  !
 ! D157  D(65,24,26,21)       -169.2543         calculate D2E/DX2 analytically  !
 ! D158  D(22,24,30,32)        -60.4077         calculate D2E/DX2 analytically  !
 ! D159  D(22,24,30,34)        176.7658         calculate D2E/DX2 analytically  !
 ! D160  D(22,24,30,66)         59.0505         calculate D2E/DX2 analytically  !
 ! D161  D(26,24,30,32)        175.8168         calculate D2E/DX2 analytically  !
 ! D162  D(26,24,30,34)         52.9902         calculate D2E/DX2 analytically  !
 ! D163  D(26,24,30,66)        -64.725          calculate D2E/DX2 analytically  !
 ! D164  D(65,24,30,32)         57.1556         calculate D2E/DX2 analytically  !
 ! D165  D(65,24,30,34)        -65.6709         calculate D2E/DX2 analytically  !
 ! D166  D(65,24,30,66)        176.6138         calculate D2E/DX2 analytically  !
 ! D167  D(23,25,27,20)        -53.7791         calculate D2E/DX2 analytically  !
 ! D168  D(23,25,27,36)        127.1359         calculate D2E/DX2 analytically  !
 ! D169  D(31,25,27,20)         71.6283         calculate D2E/DX2 analytically  !
 ! D170  D(31,25,27,36)       -107.4568         calculate D2E/DX2 analytically  !
 ! D171  D(46,25,27,20)       -168.9231         calculate D2E/DX2 analytically  !
 ! D172  D(46,25,27,36)         11.9918         calculate D2E/DX2 analytically  !
 ! D173  D(23,25,31,33)        -60.5706         calculate D2E/DX2 analytically  !
 ! D174  D(23,25,31,35)        176.654          calculate D2E/DX2 analytically  !
 ! D175  D(23,25,31,47)         58.9412         calculate D2E/DX2 analytically  !
 ! D176  D(27,25,31,33)        175.7304         calculate D2E/DX2 analytically  !
 ! D177  D(27,25,31,35)         52.9551         calculate D2E/DX2 analytically  !
 ! D178  D(27,25,31,47)        -64.7577         calculate D2E/DX2 analytically  !
 ! D179  D(46,25,31,33)         57.1046         calculate D2E/DX2 analytically  !
 ! D180  D(46,25,31,35)        -65.6707         calculate D2E/DX2 analytically  !
 ! D181  D(46,25,31,47)        176.6165         calculate D2E/DX2 analytically  !
 ! D182  D(20,27,36,37)         -2.5021         calculate D2E/DX2 analytically  !
 ! D183  D(25,27,36,37)        176.5852         calculate D2E/DX2 analytically  !
 ! D184  D(24,30,32,70)        -63.2814         calculate D2E/DX2 analytically  !
 ! D185  D(24,30,32,71)         57.5159         calculate D2E/DX2 analytically  !
 ! D186  D(24,30,32,72)        177.7558         calculate D2E/DX2 analytically  !
 ! D187  D(34,30,32,70)         59.7579         calculate D2E/DX2 analytically  !
 ! D188  D(34,30,32,71)       -179.4448         calculate D2E/DX2 analytically  !
 ! D189  D(34,30,32,72)        -59.205          calculate D2E/DX2 analytically  !
 ! D190  D(66,30,32,70)        177.8499         calculate D2E/DX2 analytically  !
 ! D191  D(66,30,32,71)        -61.3528         calculate D2E/DX2 analytically  !
 ! D192  D(66,30,32,72)         58.8871         calculate D2E/DX2 analytically  !
 ! D193  D(24,30,34,67)        178.2944         calculate D2E/DX2 analytically  !
 ! D194  D(24,30,34,68)        -62.3366         calculate D2E/DX2 analytically  !
 ! D195  D(24,30,34,69)         59.2766         calculate D2E/DX2 analytically  !
 ! D196  D(32,30,34,67)         55.3473         calculate D2E/DX2 analytically  !
 ! D197  D(32,30,34,68)        174.7164         calculate D2E/DX2 analytically  !
 ! D198  D(32,30,34,69)        -63.6705         calculate D2E/DX2 analytically  !
 ! D199  D(66,30,34,67)        -63.6653         calculate D2E/DX2 analytically  !
 ! D200  D(66,30,34,68)         55.7037         calculate D2E/DX2 analytically  !
 ! D201  D(66,30,34,69)        177.3168         calculate D2E/DX2 analytically  !
 ! D202  D(25,31,33,51)        177.3566         calculate D2E/DX2 analytically  !
 ! D203  D(25,31,33,52)        -63.7279         calculate D2E/DX2 analytically  !
 ! D204  D(25,31,33,53)         57.0987         calculate D2E/DX2 analytically  !
 ! D205  D(35,31,33,51)        -59.6537         calculate D2E/DX2 analytically  !
 ! D206  D(35,31,33,52)         59.2619         calculate D2E/DX2 analytically  !
 ! D207  D(35,31,33,53)       -179.9116         calculate D2E/DX2 analytically  !
 ! D208  D(47,31,33,51)         58.4407         calculate D2E/DX2 analytically  !
 ! D209  D(47,31,33,52)        177.3562         calculate D2E/DX2 analytically  !
 ! D210  D(47,31,33,53)        -61.8172         calculate D2E/DX2 analytically  !
 ! D211  D(25,31,35,48)        -62.3026         calculate D2E/DX2 analytically  !
 ! D212  D(25,31,35,49)         59.2502         calculate D2E/DX2 analytically  !
 ! D213  D(25,31,35,50)        178.2471         calculate D2E/DX2 analytically  !
 ! D214  D(33,31,35,48)        174.752          calculate D2E/DX2 analytically  !
 ! D215  D(33,31,35,49)        -63.6951         calculate D2E/DX2 analytically  !
 ! D216  D(33,31,35,50)         55.3017         calculate D2E/DX2 analytically  !
 ! D217  D(47,31,35,48)         55.7323         calculate D2E/DX2 analytically  !
 ! D218  D(47,31,35,49)        177.2851         calculate D2E/DX2 analytically  !
 ! D219  D(47,31,35,50)        -63.718          calculate D2E/DX2 analytically  !
 ! D220  D(27,36,37,38)         86.5571         calculate D2E/DX2 analytically  !
 ! D221  D(27,36,37,40)       -154.6721         calculate D2E/DX2 analytically  !
 ! D222  D(27,36,37,54)        -35.9956         calculate D2E/DX2 analytically  !
 ! D223  D(36,37,38,19)         54.4569         calculate D2E/DX2 analytically  !
 ! D224  D(36,37,38,22)       -130.9846         calculate D2E/DX2 analytically  !
 ! D225  D(40,37,38,19)        -62.0742         calculate D2E/DX2 analytically  !
 ! D226  D(40,37,38,22)        112.4843         calculate D2E/DX2 analytically  !
 ! D227  D(54,37,38,19)        174.0878         calculate D2E/DX2 analytically  !
 ! D228  D(54,37,38,22)        -11.3538         calculate D2E/DX2 analytically  !
 ! D229  D(36,37,40,42)       -177.0137         calculate D2E/DX2 analytically  !
 ! D230  D(36,37,40,44)         59.5113         calculate D2E/DX2 analytically  !
 ! D231  D(36,37,40,55)        -59.1522         calculate D2E/DX2 analytically  !
 ! D232  D(38,37,40,42)        -59.763          calculate D2E/DX2 analytically  !
 ! D233  D(38,37,40,44)        176.7619         calculate D2E/DX2 analytically  !
 ! D234  D(38,37,40,55)         58.0984         calculate D2E/DX2 analytically  !
 ! D235  D(54,37,40,42)         65.6191         calculate D2E/DX2 analytically  !
 ! D236  D(54,37,40,44)        -57.856          calculate D2E/DX2 analytically  !
 ! D237  D(54,37,40,55)       -176.5195         calculate D2E/DX2 analytically  !
 ! D238  D(37,40,42,59)        -59.3068         calculate D2E/DX2 analytically  !
 ! D239  D(37,40,42,60)         62.3425         calculate D2E/DX2 analytically  !
 ! D240  D(37,40,42,61)       -178.072          calculate D2E/DX2 analytically  !
 ! D241  D(44,40,42,59)         64.2308         calculate D2E/DX2 analytically  !
 ! D242  D(44,40,42,60)       -174.1199         calculate D2E/DX2 analytically  !
 ! D243  D(44,40,42,61)        -54.5344         calculate D2E/DX2 analytically  !
 ! D244  D(55,40,42,59)       -175.9138         calculate D2E/DX2 analytically  !
 ! D245  D(55,40,42,60)        -54.2645         calculate D2E/DX2 analytically  !
 ! D246  D(55,40,42,61)         65.321          calculate D2E/DX2 analytically  !
 ! D247  D(37,40,44,56)       -178.2574         calculate D2E/DX2 analytically  !
 ! D248  D(37,40,44,57)        -58.3384         calculate D2E/DX2 analytically  !
 ! D249  D(37,40,44,58)         62.7996         calculate D2E/DX2 analytically  !
 ! D250  D(42,40,44,56)         58.2828         calculate D2E/DX2 analytically  !
 ! D251  D(42,40,44,57)        178.2017         calculate D2E/DX2 analytically  !
 ! D252  D(42,40,44,58)        -60.6602         calculate D2E/DX2 analytically  !
 ! D253  D(55,40,44,56)        -61.2083         calculate D2E/DX2 analytically  !
 ! D254  D(55,40,44,57)         58.7107         calculate D2E/DX2 analytically  !
 ! D255  D(55,40,44,58)        179.8487         calculate D2E/DX2 analytically  !
 ! D256  D(16,41,43,97)         62.1962         calculate D2E/DX2 analytically  !
 ! D257  D(16,41,43,98)       -178.2136         calculate D2E/DX2 analytically  !
 ! D258  D(16,41,43,99)        -59.4341         calculate D2E/DX2 analytically  !
 ! D259  D(45,41,43,97)       -174.272          calculate D2E/DX2 analytically  !
 ! D260  D(45,41,43,98)        -54.6817         calculate D2E/DX2 analytically  !
 ! D261  D(45,41,43,99)         64.0977         calculate D2E/DX2 analytically  !
 ! D262  D(93,41,43,97)        -54.4108         calculate D2E/DX2 analytically  !
 ! D263  D(93,41,43,98)         65.1795         calculate D2E/DX2 analytically  !
 ! D264  D(93,41,43,99)       -176.0411         calculate D2E/DX2 analytically  !
 ! D265  D(16,41,45,94)         62.9119         calculate D2E/DX2 analytically  !
 ! D266  D(16,41,45,95)       -178.1493         calculate D2E/DX2 analytically  !
 ! D267  D(16,41,45,96)        -58.2069         calculate D2E/DX2 analytically  !
 ! D268  D(43,41,45,94)        -60.5016         calculate D2E/DX2 analytically  !
 ! D269  D(43,41,45,95)         58.4372         calculate D2E/DX2 analytically  !
 ! D270  D(43,41,45,96)        178.3796         calculate D2E/DX2 analytically  !
 ! D271  D(93,41,45,94)        179.9912         calculate D2E/DX2 analytically  !
 ! D272  D(93,41,45,95)        -61.07           calculate D2E/DX2 analytically  !
 ! D273  D(93,41,45,96)         58.8725         calculate D2E/DX2 analytically  !
 --------------------------------------------------------------------------------
 Trust Radius=3.00D-01 FncErr=1.00D-07 GrdErr=1.00D-07
 Number of steps in this run=      2 maximum allowed number of steps=      2.
 GradGradGradGradGradGradGradGradGradGradGradGradGradGradGradGradGradGrad

 Symmetry turned off by external request.
 Stoichiometry    C33H57KN3O9(1+)
 Framework group  C1[X(C33H57KN3O9)]
 Deg. of freedom   303
 Full point group                 C1      NOp   1
                          Input orientation:                          
 ---------------------------------------------------------------------
 Center     Atomic      Atomic             Coordinates (Angstroms)
 Number     Number       Type             X           Y           Z
 ---------------------------------------------------------------------
      1          7           0       -2.894617   12.462280   12.512573
      2          6           0       -3.737059   13.631400   12.158089
      3          6           0       -3.007743   14.931214   12.537595
      4          8           0       -2.548451   15.176339   13.648260
      5          6           0       -2.858458   12.012173   13.918704
      6          6           0       -5.154497   13.566028   12.801275
      7          6           0       -5.908155   12.310370   12.326694
      8          6           0       -5.964683   14.835605   12.474089
      9          8           0       -2.958104   15.783894   11.477685
     10          6           0       -1.407033   10.597079   11.721726
     11          6           0       -2.055271   11.986142   11.541873
     12          8           0       -1.870405   12.596397   10.462510
     13          6           0       -1.954040    9.604813   10.667426
     14          6           0       -3.484179    9.468443   10.787563
     15          6           0       -1.270392    8.232189   10.799268
     16          6           0       -2.357966   17.099417   11.717603
     17          8           0        0.030461   10.733948   11.470342
     18          8           0       -0.405408   16.493698   10.446047
     19          8           0        2.213242   13.268362   10.432495
     20          8           0        2.204176   15.837646   13.611352
     21          8           0        0.383625   11.348617   13.649291
     22          7           0        2.876868   12.448631   12.471344
     23          7           0        0.008343   17.474963   12.478737
     24          6           0        2.292165   11.130068   12.122709
     25          6           0        1.437790   17.616695   12.106035
     26          6           0        0.808451   11.097452   12.526164
     27          6           0        2.201465   16.338858   12.491705
     28          6           0        3.261523   12.702177   13.874091
     29          6           0       -0.381053   17.681957   13.887964
     30          6           0        3.080602    9.942710   12.750611
     31          6           0        2.097745   18.882792   12.728198
     32          6           0        4.537099    9.934251   12.251816
     33          6           0        1.385203   20.159775   12.246576
     34          6           0        2.394559    8.600183   12.430746
     35          6           0        3.598567   18.942400   12.382406
     36          8           0        2.891697   15.848925   11.426053
     37          6           0        3.730408   14.671854   11.668724
     38          6           0        2.850099   13.415135   11.502299
     39          6           0       -0.832435   16.970170   11.524114
     40          6           0        4.850420   14.690132   10.600762
     41          6           0       -2.955579   18.065160   10.666102
     42          6           0        5.747223   13.443324   10.727757
     43          6           0       -2.325545   19.465896   10.791645
     44          6           0        5.686904   15.977900   10.703998
     45          6           0       -4.487172   18.141190   10.796951
     46          1           0        1.462861   17.701781   11.008266
     47          1           0        2.010122   18.811633   13.828847
     48          1           0        4.160149   18.085746   12.793841
     49          1           0        3.756269   18.965982   11.288477
     50          1           0        4.041848   19.860719   12.804373
     51          1           0        1.829753   21.047300   12.729633
     52          1           0        1.497084   20.282157   11.153134
     53          1           0        0.306814   20.154245   12.478370
     54          1           0        4.164315   14.760551   12.676252
     55          1           0        4.346305   14.662435    9.615884
     56          1           0        6.460017   15.988098    9.915880
     57          1           0        5.066001   16.880005   10.583449
     58          1           0        6.204086   16.039888   11.680020
     59          1           0        6.218485   13.386966   11.727064
     60          1           0        5.191274   12.506286   10.554221
     61          1           0        6.559370   13.490452    9.982129
     62          1           0        4.293688   12.372507   14.086383
     63          1           0        3.143689   13.770734   14.100185
     64          1           0        2.559934   12.154253   14.520709
     65          1           0        2.340048   11.053723   11.025238
     66          1           0        3.074697   10.068148   13.849972
     67          1           0        2.983372    7.769960   12.857243
     68          1           0        1.378219    8.535898   12.856450
     69          1           0        2.324828    8.435847   11.339707
     70          1           0        4.576345    9.771543   11.158506
     71          1           0        5.063834   10.877981   12.472738
     72          1           0        5.098025    9.114083   12.732759
     73          1           0       -1.543396   10.188159   12.734406
     74          1           0       -1.715394   10.035848    9.676443
     75          1           0       -0.176542    8.307856   10.690594
     76          1           0       -1.490988    7.770258   11.780092
     77          1           0       -1.644493    7.548672   10.017093
     78          1           0       -3.777818    9.111484   11.792502
     79          1           0       -4.006625   10.420410   10.592321
     80          1           0       -3.852139    8.730675   10.054071
     81          1           0       -1.866800   11.597202   14.145982
     82          1           0       -2.995428   12.894774   14.560711
     83          1           0       -3.646800   11.270344   14.136719
     84          1           0       -6.082641   14.965907   11.382702
     85          1           0       -6.974272   14.755958   12.912612
     86          1           0       -5.498907   15.749003   12.882854
     87          1           0       -5.361442   11.380126   12.555234
     88          1           0       -6.894778   12.251555   12.818304
     89          1           0       -6.079195   12.344651   11.234521
     90          1           0       -5.032573   13.521530   13.900072
     91          1           0       -3.839781   13.615115   11.061682
     92          1           0       -2.635052   17.424045   12.731925
     93          1           0       -2.696006   17.649639    9.673718
     94          1           0       -4.782781   18.553269   11.780219
     95          1           0       -4.898164   18.807866   10.018827
     96          1           0       -4.957149   17.151504   10.680971
     97          1           0       -1.238816   19.455946   10.601364
     98          1           0       -2.785239   20.149128   10.057005
     99          1           0       -2.498128   19.895394   11.796645
    100          1           0        0.458610   17.360401   14.521761
    101          1           0       -0.620732   18.738757   14.099824
    102          1           0       -1.236139   17.036314   14.130987
    103         19           0       -0.035266   14.127309    9.368788
 ---------------------------------------------------------------------
 Rotational constants (GHZ):      0.0690475      0.0688213      0.0398847
 General basis read from cards:  (5D, 7F)
   777 basis functions,  1556 primitive gaussians,   825 cartesian basis functions
   183 alpha electrons      183 beta electrons
       nuclear repulsion energy      7266.0723782644 Hartrees.
 NAtoms=  103 NActive=  103 NUniq=  103 SFac= 1.00D+00 NAtFMM=   60 NAOKFM=T Big=T
 Integral buffers will be    131072 words long.
 Raffenetti 2 integral format.
 Two-electron integral symmetry is turned off.
 Force inversion solution in PCM.
 ------------------------------------------------------------------------------
 Polarizable Continuum Model (PCM)
 =================================
 Model                : PCM (using non-symmetric T matrix).
 Atomic radii         : UFF (Universal Force Field).
 Polarization charges : Total charges.
 Charge compensation  : None.
 Solution method      : Matrix inversion.
 Cavity type          : Scaled VdW (van der Waals Surface) (Alpha=1.100).
 Cavity algorithm     : GePol (No added spheres)
                        Default sphere list used, NSphG=  103.
                        Lebedev-Laikov grids with approx.  5.0 points / Ang**2.
                        Smoothing algorithm: Karplus/York (Gamma=1.0000).
                        Polarization charges: spherical gaussians, with
                                              point-specific exponents (IZeta= 3).
                        Self-potential: point-specific (ISelfS= 7).
                        Self-field    : sphere-specific E.n sum rule (ISelfD= 2).
 1st derivatives      : Analytical E(r).r(x)/FMM algorithm (CHGder, D1EAlg=3).
                        Cavity 1st derivative terms included.
 2nd derivatives      : Analytical E(r).r(xy)/FMM algorithm (CHGder, D2EAlg=3).
                        Cavity 2nd derivative terms included.
 Solvent              : n-Pentadecane, Eps=   2.033300 Eps(inf)=   2.049192
 ------------------------------------------------------------------------------
 One-electron integrals computed using PRISM.
 NBasis=   777 RedAO= T EigKep=  2.16D-03  NBF=   777
 NBsUse=   777 1.00D-06 EigRej= -1.00D+00 NBFU=   777
 Initial guess from the checkpoint file:  "nP_EB11K_above.chk"
 B after Tr=     0.000000    0.000000    0.000000
         Rot=    1.000000    0.000000    0.000000    0.000000 Ang=   0.00 deg.
 Requested convergence on RMS density matrix=1.00D-08 within 128 cycles.
 Requested convergence on MAX density matrix=1.00D-06.
 Requested convergence on             energy=1.00D-06.
 No special actions if energy rises.
 Inv3:  Mode=1 IEnd=   102843075.
 Iteration    1 A*A^-1 deviation from unit magnitude is 4.44D-15 for   3370.
 Iteration    1 A*A^-1 deviation from orthogonality  is 4.48D-15 for   4668   1302.
 Iteration    1 A^-1*A deviation from unit magnitude is 4.33D-15 for   2310.
 Iteration    1 A^-1*A deviation from orthogonality  is 8.69D-15 for   5806   5799.
 Error on total polarization charges =  0.00792
 SCF Done:  E(RB-P86) =  -2733.07893405     A.U. after    1 cycles
            NFock=  1  Conv=0.28D-08     -V/T= 2.0065
 QCSCF skips out because SCF is already converged.
 Range of M.O.s used for correlation:     1   777
 NBasis=   777 NAE=   183 NBE=   183 NFC=     0 NFV=     0
 NROrb=    777 NOA=   183 NOB=   183 NVA=   594 NVB=   594
 Symmetrizing basis deriv contribution to polar:
 IMax=3 JMax=2 DiffMx= 0.00D+00
 G2DrvN: will do   104 centers at a time, making    1 passes.
 Calling FoFCou, ICntrl=  3507 FMM=T I1Cent=   0 AccDes= 0.00D+00.
 NEqPCM:  Using equilibrium solvation (IEInf=0, Eps=   2.0333, EpsInf=   2.0492)
 G2PCM: DoFxE=T DoFxN=T DoGrad=T DoDP/DQ/DG/TGxP=FFFF NFrqRd=   0 IEInf=0 SqF1=F DoCFld=F IF1Alg=4.
 End of G2Drv F.D. properties file   721 does not exist.
 End of G2Drv F.D. properties file   722 does not exist.
 End of G2Drv F.D. properties file   788 does not exist.
          IDoAtm=11111111111111111111111111111111111111111111111111
          IDoAtm=11111111111111111111111111111111111111111111111111
          IDoAtm=111
 NEqPCM:  Using equilibrium solvation (IEInf=0, Eps=   2.0333, EpsInf=   2.0492)
          Differentiating once with respect to electric field.
                with respect to dipole field.
          Differentiating once with respect to nuclear coordinates.
 CalDSu exits because no D1Ps are significant.
          There are   312 degrees of freedom in the 1st order CPHF.  IDoFFX=6 NUNeed=     3.
    312 vectors produced by pass  0 Test12= 1.09D-13 1.00D-09 XBig12= 5.24D+02 4.64D+00.
 AX will form    72 AO Fock derivatives at one time.
    309 vectors produced by pass  1 Test12= 1.09D-13 1.00D-09 XBig12= 3.79D+02 2.22D+00.
    309 vectors produced by pass  2 Test12= 1.09D-13 1.00D-09 XBig12= 1.12D+00 6.35D-02.
    309 vectors produced by pass  3 Test12= 1.09D-13 1.00D-09 XBig12= 1.23D-03 1.53D-03.
    179 vectors produced by pass  4 Test12= 1.09D-13 1.00D-09 XBig12= 2.00D-07 2.29D-05.
     11 vectors produced by pass  5 Test12= 1.09D-13 1.00D-09 XBig12= 1.59D-11 1.56D-07.
      1 vectors produced by pass  6 Test12= 1.09D-13 1.00D-09 XBig12= 2.74D-15 2.36D-09.
 InvSVY:  IOpt=1 It=  1 EMax= 1.07D-14
 Solved reduced A of dimension  1430 with   312 vectors.
 Isotropic polarizability for W=    0.000000      471.45 Bohr**3.
 End of Minotr F.D. properties file   721 does not exist.
 End of Minotr F.D. properties file   722 does not exist.
 End of Minotr F.D. properties file   788 does not exist.

 **********************************************************************

            Population analysis using the SCF density.

 **********************************************************************

 Alpha  occ. eigenvalues -- -128.88757 -18.89632 -18.89629 -18.89608 -18.84364
 Alpha  occ. eigenvalues --  -18.84359 -18.84348 -18.82896 -18.82887 -18.82886
 Alpha  occ. eigenvalues --  -14.11958 -14.11950 -14.11945 -12.89270 -10.30045
 Alpha  occ. eigenvalues --  -10.29999 -10.29998 -10.09102 -10.09100 -10.09091
 Alpha  occ. eigenvalues --  -10.06924 -10.06915 -10.06911 -10.02915 -10.02901
 Alpha  occ. eigenvalues --  -10.02891 -10.01162 -10.01150 -10.01127  -9.98241
 Alpha  occ. eigenvalues --   -9.98226  -9.98216  -9.97382  -9.97373  -9.97351
 Alpha  occ. eigenvalues --   -9.97015  -9.97004  -9.96989  -9.94326  -9.94325
 Alpha  occ. eigenvalues --   -9.94315  -9.94306  -9.94300  -9.94286  -9.94200
 Alpha  occ. eigenvalues --   -9.94197  -9.94192  -9.93845  -9.93845  -9.93838
 Alpha  occ. eigenvalues --   -1.28856  -1.06724  -1.06652  -1.06631  -1.00805
 Alpha  occ. eigenvalues --   -1.00788  -1.00510  -0.98473  -0.98319  -0.98308
 Alpha  occ. eigenvalues --   -0.91311  -0.91303  -0.91256  -0.80219  -0.79413
 Alpha  occ. eigenvalues --   -0.79409  -0.78127  -0.78120  -0.77716  -0.72740
 Alpha  occ. eigenvalues --   -0.72159  -0.72152  -0.70240  -0.70233  -0.69986
 Alpha  occ. eigenvalues --   -0.69454  -0.69336  -0.69330  -0.68326  -0.68317
 Alpha  occ. eigenvalues --   -0.66345  -0.66325  -0.66214  -0.66202  -0.65897
 Alpha  occ. eigenvalues --   -0.65894  -0.65828  -0.60972  -0.59257  -0.59249
 Alpha  occ. eigenvalues --   -0.57595  -0.57592  -0.57194  -0.55281  -0.54993
 Alpha  occ. eigenvalues --   -0.54987  -0.53449  -0.53438  -0.53239  -0.52877
 Alpha  occ. eigenvalues --   -0.52343  -0.52332  -0.51104  -0.51095  -0.50303
 Alpha  occ. eigenvalues --   -0.48982  -0.48959  -0.48949  -0.47787  -0.47684
 Alpha  occ. eigenvalues --   -0.47673  -0.47119  -0.46085  -0.46074  -0.45145
 Alpha  occ. eigenvalues --   -0.44931  -0.44917  -0.44577  -0.44337  -0.44327
 Alpha  occ. eigenvalues --   -0.43566  -0.43508  -0.43499  -0.42574  -0.42563
 Alpha  occ. eigenvalues --   -0.42200  -0.41437  -0.41200  -0.41192  -0.40773
 Alpha  occ. eigenvalues --   -0.40754  -0.40621  -0.39835  -0.39825  -0.39682
 Alpha  occ. eigenvalues --   -0.39530  -0.39524  -0.39477  -0.38790  -0.38787
 Alpha  occ. eigenvalues --   -0.38764  -0.38501  -0.38477  -0.38459  -0.38113
 Alpha  occ. eigenvalues --   -0.38110  -0.38084  -0.37948  -0.37939  -0.37925
 Alpha  occ. eigenvalues --   -0.37471  -0.37437  -0.37008  -0.35520  -0.35224
 Alpha  occ. eigenvalues --   -0.35212  -0.34639  -0.34614  -0.34607  -0.34455
 Alpha  occ. eigenvalues --   -0.34449  -0.34259  -0.34141  -0.34129  -0.33905
 Alpha  occ. eigenvalues --   -0.33742  -0.33673  -0.33671  -0.33338  -0.33329
 Alpha  occ. eigenvalues --   -0.33303  -0.32372  -0.32188  -0.32176  -0.29651
 Alpha  occ. eigenvalues --   -0.29644  -0.29177  -0.27716  -0.27707  -0.27287
 Alpha  occ. eigenvalues --   -0.26508  -0.26485  -0.26360
 Alpha virt. eigenvalues --   -0.10327  -0.09581  -0.09569  -0.08998  -0.08824
 Alpha virt. eigenvalues --   -0.08806  -0.05158  -0.00921  -0.00112  -0.00091
 Alpha virt. eigenvalues --    0.00593   0.01113   0.01133   0.01962   0.02087
 Alpha virt. eigenvalues --    0.02112   0.02630   0.03025   0.03033   0.03728
 Alpha virt. eigenvalues --    0.03749   0.03933   0.04319   0.04363   0.04812
 Alpha virt. eigenvalues --    0.05079   0.05321   0.05335   0.05541   0.05580
 Alpha virt. eigenvalues --    0.05618   0.05847   0.06486   0.06529   0.06535
 Alpha virt. eigenvalues --    0.06784   0.06791   0.07170   0.07272   0.07302
 Alpha virt. eigenvalues --    0.07555   0.07750   0.07784   0.08260   0.08409
 Alpha virt. eigenvalues --    0.08413   0.09017   0.09270   0.09471   0.09492
 Alpha virt. eigenvalues --    0.09815   0.09848   0.09858   0.10155   0.10175
 Alpha virt. eigenvalues --    0.10287   0.10655   0.10693   0.10704   0.11151
 Alpha virt. eigenvalues --    0.11213   0.11223   0.11411   0.11430   0.11579
 Alpha virt. eigenvalues --    0.11861   0.11884   0.12855   0.13049   0.13096
 Alpha virt. eigenvalues --    0.13484   0.13513   0.13686   0.13889   0.13915
 Alpha virt. eigenvalues --    0.14152   0.14478   0.14685   0.14717   0.15315
 Alpha virt. eigenvalues --    0.15354   0.15379   0.15871   0.15953   0.15973
 Alpha virt. eigenvalues --    0.16133   0.16489   0.16524   0.16705   0.16819
 Alpha virt. eigenvalues --    0.16854   0.17457   0.17613   0.17661   0.17770
 Alpha virt. eigenvalues --    0.17805   0.17963   0.18132   0.18338   0.18357
 Alpha virt. eigenvalues --    0.18623   0.18634   0.18740   0.19654   0.20116
 Alpha virt. eigenvalues --    0.20154   0.23020   0.23034   0.23067   0.24694
 Alpha virt. eigenvalues --    0.24793   0.24820   0.26338   0.26368   0.27986
 Alpha virt. eigenvalues --    0.28724   0.28732   0.30891   0.30949   0.30986
 Alpha virt. eigenvalues --    0.33029   0.33369   0.33385   0.38705   0.38726
 Alpha virt. eigenvalues --    0.38758   0.39330   0.39338   0.39738   0.40643
 Alpha virt. eigenvalues --    0.40686   0.41032   0.42307   0.42339   0.43203
 Alpha virt. eigenvalues --    0.43461   0.43503   0.43519   0.43792   0.43802
 Alpha virt. eigenvalues --    0.44883   0.44910   0.44955   0.46136   0.46326
 Alpha virt. eigenvalues --    0.46641   0.46655   0.47186   0.47328   0.47426
 Alpha virt. eigenvalues --    0.48271   0.48761   0.48796   0.49506   0.49965
 Alpha virt. eigenvalues --    0.49999   0.50661   0.50715   0.50760   0.51465
 Alpha virt. eigenvalues --    0.51479   0.51724   0.52301   0.52359   0.53386
 Alpha virt. eigenvalues --    0.53633   0.54102   0.54138   0.54430   0.54434
 Alpha virt. eigenvalues --    0.55044   0.55778   0.56211   0.56228   0.57083
 Alpha virt. eigenvalues --    0.57822   0.57825   0.58025   0.58063   0.58840
 Alpha virt. eigenvalues --    0.59982   0.60001   0.60802   0.60868   0.60886
 Alpha virt. eigenvalues --    0.60961   0.61454   0.61469   0.62677   0.63061
 Alpha virt. eigenvalues --    0.63111   0.64012   0.64075   0.64586   0.65231
 Alpha virt. eigenvalues --    0.65613   0.65657   0.65710   0.67920   0.67963
 Alpha virt. eigenvalues --    0.68151   0.69229   0.69668   0.69744   0.70377
 Alpha virt. eigenvalues --    0.70543   0.70611   0.70919   0.71206   0.71230
 Alpha virt. eigenvalues --    0.71395   0.71442   0.72504   0.72561   0.72608
 Alpha virt. eigenvalues --    0.73230   0.73986   0.73998   0.74071   0.75561
 Alpha virt. eigenvalues --    0.76342   0.76398   0.76433   0.77033   0.77063
 Alpha virt. eigenvalues --    0.77541   0.77764   0.77811   0.77858   0.78712
 Alpha virt. eigenvalues --    0.78739   0.79457   0.79492   0.79511   0.79746
 Alpha virt. eigenvalues --    0.79824   0.79872   0.80069   0.80352   0.80369
 Alpha virt. eigenvalues --    0.80553   0.81030   0.81069   0.81508   0.82460
 Alpha virt. eigenvalues --    0.82654   0.82709   0.82792   0.83255   0.83281
 Alpha virt. eigenvalues --    0.83477   0.83854   0.83891   0.84677   0.84691
 Alpha virt. eigenvalues --    0.85087   0.85728   0.85747   0.85851   0.86162
 Alpha virt. eigenvalues --    0.86179   0.86566   0.86802   0.86828   0.87392
 Alpha virt. eigenvalues --    0.87466   0.87985   0.88692   0.89088   0.89130
 Alpha virt. eigenvalues --    0.89568   0.90240   0.90341   0.90658   0.91485
 Alpha virt. eigenvalues --    0.91756   0.91878   0.92604   0.92836   0.92953
 Alpha virt. eigenvalues --    0.93830   0.93940   0.94429   0.94495   0.94609
 Alpha virt. eigenvalues --    0.94689   0.95310   0.95401   0.95429   0.95825
 Alpha virt. eigenvalues --    0.95970   0.96652   0.98253   0.98294   0.99020
 Alpha virt. eigenvalues --    0.99904   0.99936   1.00862   1.00968   1.01780
 Alpha virt. eigenvalues --    1.01859   1.02618   1.02712   1.04066   1.04188
 Alpha virt. eigenvalues --    1.04288   1.06418   1.06536   1.06630   1.07080
 Alpha virt. eigenvalues --    1.08061   1.08164   1.09287   1.09334   1.09900
 Alpha virt. eigenvalues --    1.11259   1.12599   1.12672   1.13094   1.13804
 Alpha virt. eigenvalues --    1.13900   1.14842   1.15190   1.15245   1.17041
 Alpha virt. eigenvalues --    1.17392   1.19315   1.19441   1.21935   1.21968
 Alpha virt. eigenvalues --    1.22081   1.22993   1.23102   1.23455   1.25547
 Alpha virt. eigenvalues --    1.25627   1.25728   1.27326   1.27407   1.28973
 Alpha virt. eigenvalues --    1.30599   1.30775   1.30912   1.32265   1.32306
 Alpha virt. eigenvalues --    1.33013   1.35674   1.35697   1.36411   1.37382
 Alpha virt. eigenvalues --    1.37429   1.37454   1.38721   1.38760   1.38873
 Alpha virt. eigenvalues --    1.39876   1.39958   1.40020   1.40687   1.41298
 Alpha virt. eigenvalues --    1.41329   1.42609   1.42836   1.42900   1.44991
 Alpha virt. eigenvalues --    1.45102   1.46345   1.46461   1.46716   1.48650
 Alpha virt. eigenvalues --    1.48897   1.48936   1.50188   1.50247   1.52455
[...]
 -0.00001427,0.00000770,-0.00000346,0.00000018,0.00000038,0.00000103,0.
 00000116,-0.00000018,-0.00000400,0.00000159,-0.00000114,-0.00000408,-0
 .00000531,0.00000466,0.00000214,-0.00000136,-0.00000057,0.00000041,0.0
 0000078,0.00000181,-0.00000203,-0.00000261,-0.00000154,-0.00000477,0.0
 0000096,0.00000114,-0.00000381,-0.00000585,-0.00000242,0.00000288,-0.0
 0000027,0.00000294,-0.00000444,-0.00000173,-0.00000226,-0.00000048,-0.
 00000010,-0.00000288,-0.00000178,0.00001198,0.00000199,-0.00000112,-0.
 00000327,-0.00000080,-0.00001217,0.00000071,-0.00001253,0.00000094,0.0
 0001123,0.00000524,0.00001168,-0.00000555,-0.00000754,-0.00004439,-0.0
 0008487,0.00009188,0.00001576,0.00003659,0.00000900,-0.00000041,0.0000
 0057,0.00001482,0.00003588,-0.00000371,0.00000667,-0.00003566,0.000029
 76,0.00000565,-0.00001290,-0.00000411,0.00000120,0.00003701,0.00003558
 ,0.00000423,-0.00000387,0.00000337,0.00000804,-0.00001032,-0.00001612,
 0.00000237,0.00012443,0.00021816,0.00006875,0.00101136,0.00034159,0.00
 027519,-0.00003445,0.00006874,-0.00013508,0.00002497,-0.00002137,-0.00
 001055,-0.00000922,-0.00001382,-0.00002031,-0.00004136,-0.00001439,-0.
 00002553,-0.00000932,-0.00002508,-0.00001282,-0.00001546,-0.00001483,-
 0.00003782,0.00000228,-0.00009926,-0.00004383,0.00849373,0.00645831,-0
 .00285209,-0.02275481,-0.01435817,0.00516554,0.13213253,0.14617245,-0.
 00003933,0.00011238,0.00005121,0.00006258,-0.00006887,0.00026887,-0.00
 089563,-0.00057979,-0.00193483,0.00139662,0.00155719,0.00027882,-0.000
 01223,0.00000234,0.00004238,-0.00011528,0.00003043,0.00007703,0.000041
 37,-0.00002452,-0.00003668,0.00001065,0.00000005,-0.00002614,-0.000155
 24,-0.00013373,0.00054297,0.00005376,-0.00002550,0.00001401,0.00010152
 ,-0.00004066,-0.00019639,-0.00005593,0.00000850,0.00010674,-0.00001642
 ,0.00000114,-0.00001558,0.00000226,-0.00000714,0.00000474,0.00000698,0
 .00000029,0.00001069,-0.00027584,-0.00057634,-0.00166860,-0.00009228,0
 .00000391,-0.00004768,0.00000049,-0.00071058,-0.00094455,-0.00002745,-
 0.00002458,-0.00000889,0.00000318,-0.00005470,0.00041961,-0.00003013,-
 0.00000475,-0.00004004,-0.00001572,-0.00002784,-0.00000114,0.02876364,
 0.01477633,-0.01446281,0.00000756,0.00001360,0.00000322,-0.00178233,0.
 00066314,-0.00503295,0.00006782,0.00001477,0.00007715,-0.00030301,0.00
 048772,-0.00050673,0.00000010,-0.00000223,0.00000766,0.03743517,0.0280
 5450,-0.05549794,-0.00000334,-0.00000517,0.00000520,-0.00070755,-0.000
 60775,-0.00069436,0.00000024,0.00000317,-0.00000181,0.00002474,0.00009
 221,0.00009654,0.00000255,0.00000059,-0.00000015,0.00013994,0.00012154
 ,0.00031495,0.00012453,-0.00020184,0.00009668,-0.00006656,0.00004473,0
 .00000060,0.00004723,0.00002833,0.00000252,0.00276779,0.00160265,0.001
 91133,-0.00000227,-0.00001302,0.00000951,-0.00019979,0.00039984,0.0001
 3913,0.00000627,0.00000807,-0.00000726,0.00012382,0.00002923,-0.000021
 03,-0.00000281,0.00000342,-0.00000323,-0.00003992,-0.00004015,0.000065
 28,0.00151200,0.00004185,-0.00039502,0.00010193,0.00007651,0.00062250,
 -0.00001415,0.00000430,-0.00001075,-0.00014162,-0.00002079,0.00007842,
 0.00005359,0.00000952,0.00001258,-0.00002004,0.00004270,-0.00000079,0.
 00000111,-0.00007779,0.00005018,-0.00002875,0.00001658,-0.00007395,0.0
 0000872,-0.00001669,0.00000571,0.00000016,0.00000480,0.00000123,0.0000
 0395,-0.00000039,-0.00000086,-0.00000689,-0.00000819,-0.00000123,0.000
 00246,-0.00000289,0.00000272,-0.00000022,-0.00000078,0.00000102,-0.000
 00132,-0.00000130,0.00000060,0.00000405,-0.00000365,-0.00000111,0.0000
 0113,-0.00000158,-0.00000221,-0.00000828,0.00000064,0.00000267,0.00000
 196,0.00000789,0.00000577,0.00000012,-0.00000012,-0.00000184,0.0000000
 2,0.00000095,-0.00000239,-0.00000195,-0.00000034,-0.00000008,-0.000001
 01,-0.00000146,0.00000316,0.00000124,-0.00000094,-0.00000240,0.0000003
 2,0.00000009,-0.00000092,-0.00000254,-0.00000140,-0.00000009,-0.000001
 34,-0.00000030,0.00000098,-0.00000377,0.00000238,-0.00000146,0.0000022
 5,-0.00000096,-0.00000023,-0.00000352,0.00000082,0.00000007,0.00000043
 ,0.00000112,-0.00000213,-0.00000188,0.00000557,0.00000004,-0.00000029,
 -0.00000080,-0.00000101,-0.00000712,0.00000212,-0.00000671,-0.00000080
 ,0.00000517,0.00000216,0.00000501,0.00002070,0.00000283,0.00000157,-0.
 00005943,0.00007017,0.00000502,0.00001857,-0.00000501,-0.00000846,-0.0
 0000390,-0.00000344,0.00002688,0.00000951,0.00000373,-0.00002552,0.000
 02471,0.00002547,-0.00000789,0.00000704,0.00000242,0.00002269,0.000019
 60,0.00000472,-0.00000189,0.00000078,0.00000125,-0.00000488,-0.0000053
 9,-0.00000808,0.00005601,0.00010378,0.00001283,-0.00263953,0.00080780,
 -0.00114528,0.00011872,-0.00011269,0.00016372,-0.00000851,0.00001033,-
 0.00001642,0.00004044,-0.00002387,0.00000486,-0.00002029,0.00000822,-0
 .00001445,-0.00003876,-0.00004187,0.00000978,-0.00003713,-0.00003392,0
 .00002524,-0.00003279,0.00003721,0.00002417,-0.01328957,-0.01182914,0.
 00521889,-0.00468143,-0.00140432,0.00147676,-0.04736193,-0.03262923,0.
 07047118,0.00165990,-0.00013496,-0.00226085,-0.00019266,0.00033648,0.0
 0016641,0.00021923,-0.00022902,0.00169104,-0.00051745,-0.00023782,-0.0
 0092667,0.00006377,-0.00035505,0.00056314,-0.00026653,-0.00006069,0.00
 007610,0.00006294,-0.00004695,-0.00003717,0.00010001,0.00007594,-0.000
 03552,0.00005052,-0.00045344,-0.00100110,0.00130107,0.00033165,-0.0003
 8460,-0.00228388,-0.00317258,0.00593293,-0.00698148,-0.00359888,0.0016
 0606,-0.00034056,-0.00004298,-0.00013920,0.00002800,-0.00010618,-0.000
 01590,0.00019432,0.00003484,0.00008556,0.00036562,0.00093831,0.0002262
 1,-0.00185745,-0.00029208,-0.00057536,-0.00137634,0.00144573,-0.000048
 58,-0.00842035,0.00433891,-0.00111135,-0.00051983,0.00024605,0.0010726
 5,-0.00091109,-0.00005503,-0.00007985,0.00062234,-0.00255846,0.0031704
 3,-0.00092777,-0.00033089,-0.00080336,0.00053431,0.00092066,0.00016283
 ,0.00063279,-0.00002288,-0.00031001,0.00189517,0.00028921,0.00055686,0
 .00157890,-0.00154361,-0.00233853,-0.00040185,-0.00038455,-0.00057320,
 -0.00014744,-0.00000568,-0.00001363,-0.00029399,0.00003027,-0.00005750
 ,-0.00020851,-0.00002042,-0.00003710,0.00000111,0.00001283,0.00003271,
 0.00009043,0.00004114,0.00003053,0.00019301,-0.00003263,0.00007395,0.0
 0004722,-0.00004337,-0.00002958,-0.00055569,0.00144081,0.00163342,0.00
 021201,-0.00014811,0.00012708,-0.00522974,0.00153612,-0.00859204,0.000
 38353,0.00134060,0.00220532,-0.00037274,0.00018729,-0.00009848,-0.0001
 5547,0.00007500,0.00028683,-0.00001333,0.00007538,0.00002039,0.0001439
 3,0.00002394,-0.00002697,0.00011281,-0.00016158,-0.00007857,-0.0000187
 3,0.00002668,-0.00003435,0.00007823,-0.00018475,-0.00000062,0.00002139
 ,0.00001706,0.00002633,-0.00007738,0.00002096,-0.00005639,-0.00000795,
 -0.00004622,0.00003904,-0.00003185,0.00004525,0.00002444,-0.00002865,0
 .00003610,-0.00001200,0.00001580,-0.00001133,-0.00000189,-0.00005486,0
 .00003187,0.00002802,0.00025117,0.00027280,0.00013114,-0.00019374,-0.0
 0010262,0.00028583,0.00007868,0.00007660,-0.00003467,-0.00005745,-0.00
 002195,-0.00001794,0.00005841,0.00004057,0.00007149,0.00005464,-0.0000
 2423,0.00006657,-0.00009422,0.00012492,0.00000681,0.00007771,0.0000010
 6,-0.00004179,0.00017209,0.00003381,0.00028037,0.00003799,0.00000262,0
 .00002402,0.00010102,0.00003548,0.00028634,-0.00010806,0.00031663,-0.0
 0007116,0.00005639,-0.00003219,0.00004875,-0.00003257,-0.00009461,-0.0
 0000514,-0.00006034,-0.00001334,0.00004039,0.00000703,0.00001118,-0.00
 003288,-0.00000629,0.00003171,0.00000406,-0.00013099,-0.00000292,-0.00
 003735,0.00001733,-0.00007182,0.00002579,-0.00027316,0.00031881,-0.000
 04453,0.00011721,-0.00017012,-0.00009606,-0.00007410,0.00003704,0.0000
 0962,-0.00001768,0.00003739,-0.00001907,-0.00004066,0.00007757,0.00000
 161,-0.00000098,0.00002383,-0.00003063,-0.00016063,0.00003399,-0.00001
 213,-0.00001378,0.00004671,0.00002258,0.00011831,0.00004370,-0.0001129
 0,0.00000346,0.00001636,-0.00013830,0.00005422,0.00012069,-0.00023432,
 -0.00005061,0.00000053,-0.00000531,0.00007635,-0.00002295,-0.00001808,
 -0.00003567,0.00000773,0.00001976,-0.00006065,-0.00002723,0.00001884,0
 .00007724,0.00001802,-0.00001584,-0.00003625,-0.00000706,-0.00000558,0
 .00007457,0.00002689,-0.00007706,-0.00044511,-0.00009510,0.00006351,-0
 .00006876,-0.00013895,-0.00008592,0.00000112,0.00013669,-0.00017498,0.
 00002457,-0.00002339,-0.00004746,0.00000679,-0.00001885,0.00002862,-0.
 00010213,-0.00001314,0.00000903,-0.00004643,0.00000086,0.00001300,-0.0
 0000993,-0.00004419,0.00001192,-0.00001540,-0.00005539,-0.00003525,0.0
 0005728,-0.00006269,-0.00013369,0.00001321,-0.00000457,-0.00003697,0.0
 0004047,0.00008242,0.00008051,0.02214358,0.00187132,-0.00083334,-0.002
 32721,-0.00047848,0.00086579,-0.00026644,0.00073848,0.00229783,-0.0016
 6412,-0.00022558,-0.00081444,0.00064978,0.00012330,-0.00037083,0.00032
 947,-0.00002837,-0.00023482,0.00000750,-0.00005362,0.00003897,0.000008
 13,0.00007986,0.00012061,-0.00005954,-0.00094351,-0.00161977,0.0014046
 8,-0.00037611,0.00000804,0.00003748,-0.00293201,-0.00221811,0.00621595
 ,-0.00476350,-0.00328301,0.00111928,-0.00019810,-0.00022905,0.00023438
 ,-0.00008986,0.00006745,-0.00003160,0.00010621,-0.00001225,0.00001496,
 0.00024148,0.00090037,0.00029163,-0.00072388,0.00048865,-0.00155453,0.
 00040884,-0.01074314,-0.00157827,0.00317908,-0.00231523,0.00095327,0.0
 0027676,-0.00076283,0.00048642,-0.00001467,-0.00035499,-0.00110944,-0.
 00054530,0.00034965,-0.00086379,0.00171911,0.00191048,0.00314495,0.000
 07048,0.00009479,0.00026284,-0.00086058,-0.00000459,0.00001853,0.00122
 917,0.00051981,0.00223451,-0.00058544,0.00097643,-0.00062369,0.0001325
 4,0.00006658,0.00033362,0.00049043,-0.00015704,-0.00068478,0.00006476,
 -0.00021691,0.00006552,0.00001968,-0.00031367,-0.00007732,0.00001029,0
 .00009949,-0.00004240,0.00004488,0.00001251,0.00004989,-0.00003620,0.0
 0003755,-0.00000016,-0.00004671,0.00018418,0.00006558,0.00085143,-0.00
 107890,0.00012652,-0.00092423,0.00102792,-0.00034467,0.00193418,0.0002
 2665,0.00223165,0.00156526,-0.00524004,-0.00854054,0.00003678,-0.00022
 480,-0.00024092,-0.00006832,-0.00043213,0.00004163,0.00006989,0.000118
 93,-0.00000025,0.00002644,-0.00004691,0.00002325,-0.00009075,0.0000928
 1,0.00006930,0.00009322,0.00021670,-0.00010134,-0.00021125,-0.00040582
 ,-0.00006444,0.00001017,0.00008949,0.00007433,0.00000625,-0.00004159,0
 .00001253,-0.00001717,-0.00002022,-0.00001661,0.00009429,0.00004166,0.
 00000497,0.00004310,0.00007327,0.00002150,-0.00002705,-0.00003860,-0.0
 0000474,0.00003255,-0.00010774,-0.00002782,-0.00003868,-0.00030830,0.0
 0002444,-0.00000615,0.00015027,0.00004064,-0.00001544,-0.00004786,-0.0
 0001394,-0.00002335,-0.00010700,0.00000146,0.00000369,-0.00001401,0.00
 001490,0.00001632,-0.00003073,0.00000631,0.00001876,-0.00011533,-0.000
 01228,0.00000184,-0.00003820,0.00000730,-0.00007448,-0.00001125,-0.000
 11911,-0.00008923,0.00009073,-0.00010963,0.00003516,0.00000886,-0.0000
 1081,0.00027884,-0.00019635,0.00004180,-0.00003496,0.00004701,-0.00005
 809,-0.00004247,0.00004167,-0.00002439,-0.00001492,-0.00004893,0.00004
 711,0.00003621,-0.00004431,-0.00002965,0.00002219,-0.00000893,-0.00000
 371,0.00000525,-0.00003616,-0.00000808,-0.00005629,0.00002969,-0.00000
 119,0.00000796,0.00019845,-0.00012556,-0.00006340,-0.00018239,-0.00026
 934,0.00002740,-0.00008028,0.00001652,-0.00000060,0.00005994,-0.000069
 07,-0.00001056,0.00006606,0.00003478,0.00006678,0.00003600,-0.00006646
 ,-0.00007568,-0.00002916,0.00000583,0.00004575,0.00004673,0.00002944,-
 0.00004274,0.00002127,0.00002786,0.00002965,0.00010264,-0.00023874,0.0
 0003465,0.00009130,-0.00018122,0.00002414,0.00001605,0.00004469,0.0000
 2334,-0.00007386,0.00001751,0.00000053,-0.00007745,-0.00005744,-0.0000
 3873,-0.00008906,0.00004687,0.00003005,-0.00003747,-0.00002278,-0.0000
 2285,0.00001351,-0.00000496,0.00001554,0.00002804,-0.00001580,-0.00012
 946,0.00012567,0.00003521,-0.00045762,0.00000208,0.00011924,0.00023633
 ,-0.00006792,0.00022684,-0.00006069,0.00001810,0.00005115,-0.00011878,
 0.00001890,-0.00002227,-0.00001095,-0.00004499,-0.00001689,-0.00009491
 ,-0.00014439,0.00002081,-0.00005152,0.00004681,-0.00003441,-0.00000600
 ,0.00003695,0.00003927,-0.00005410,0.00004640,0.00024974,-0.00010890,0
 .00013749,0.00031180,0.00000173,0.00008801,0.00008193,-0.00054820,0.02
 145984,-0.00081737,0.00009039,0.00055018,0.00030557,-0.00016947,0.0002
 6600,0.00061708,0.00010599,0.00002455,-0.00053554,0.00005599,-0.000116
 10,0.00004762,0.00018415,-0.00030341,0.00022059,0.00001835,-0.00014070
 ,-0.00004567,0.00002695,0.00012685,-0.00004534,-0.00004807,0.00011968,
 -0.00044977,0.00040050,0.00020940,0.00040982,0.00036440,0.00006233,0.0
 0204705,0.00208468,-0.00298301,0.00354569,0.00299673,-0.00220305,0.000
 11788,0.00002210,0.00046451,0.00001912,-0.00005428,-0.00013086,-0.0000
 8690,-0.00002570,-0.00017516,0.00010176,-0.00050013,0.00007211,-0.0000
 0817,-0.00074460,0.00027109,0.00045559,-0.00461336,-0.00303654,-0.0036
 8627,0.00194738,-0.00188115,0.00028361,0.00044556,-0.00010548,0.000214
 88,-0.00046556,-0.00010825,0.00035016,-0.00074368,0.00052855,0.0004533
 0,0.00065458,0.00047470,-0.00002241,0.00034983,0.00027289,-0.00025611,
 -0.00018842,0.00027141,-0.00054849,0.00044444,-0.00007831,-0.00014647,
 -0.00059444,-0.00008296,-0.00019337,-0.00005682,-0.00030408,0.00012030
 ,-0.00013168,-0.00029418,-0.00012978,0.00018660,-0.00014590,-0.0001078
 6,-0.00019568,-0.00014130,0.00000328,-0.00005827,0.00013428,0.00005371
 ,0.00002920,0.00013309,0.00006971,-0.00001488,0.00012013,-0.00001489,0
 .00006304,0.00011923,0.00036114,0.00019377,-0.00009419,-0.00052567,0.0
 0016035,0.00006977,-0.00280202,0.00054735,-0.00302849,0.00080541,-0.00
 251703,-0.00289687,-0.00007130,0.00010409,0.00047580,-0.00004356,-0.00
 010760,0.00046670,0.00003812,0.00003932,-0.00014270,-0.00005424,0.0000
 1007,-0.00012751,0.00007559,-0.00006769,-0.00018673,0.00002204,0.00008
 937,-0.00017479,-0.00008744,-0.00010102,0.00002688,0.00000636,0.000033
 99,-0.00000199,-0.00005221,0.00000177,-0.00002623,0.00000814,-0.000008
 73,-0.00003588,0.00004645,0.00004447,-0.00000700,0.00000244,0.00006603
 ,-0.00001322,0.00000559,-0.00000300,-0.00004807,0.00001218,-0.00004858
 ,-0.00000455,0.00010309,0.00004907,0.00002561,-0.00004530,-0.00002332,
 -0.00002806,0.00010586,0.00004204,-0.00001186,-0.00003830,-0.00001030,
 0.00007250,-0.00002988,0.00000566,-0.00001713,-0.00003403,0.00000220,-
 0.00002318,-0.00005504,0.00004257,0.00007731,0.00010250,-0.00000442,-0
 .00001119,0.00010304,-0.00001679,0.00009907,-0.00007983,0.00001371,-0.
 00001066,-0.00003945,0.00004047,0.00003700,-0.00004733,0.00011890,0.00
 001374,0.00002465,-0.00002141,-0.00000241,0.00001611,-0.00006464,-0.00
 000613,0.00001434,0.00004204,-0.00003222,-0.00001490,-0.00000025,-0.00
 003399,-0.00000555,-0.00000597,-0.00004149,-0.00005521,0.00000867,-0.0
 0000443,0.00005635,-0.00003784,-0.00001215,-0.00000660,-0.00010748,0.0
 0002870,0.00000392,0.00003779,-0.00002824,0.00000961,0.00004420,0.0000
 6828,0.00001885,0.00002431,-0.00001819,-0.00001758,-0.00011088,-0.0000
 1251,0.00001387,0.00002496,-0.00002078,0.00005879,0.00003085,0.0000768
 5,-0.00005570,-0.00008799,-0.00001076,0.00005337,0.00006045,-0.0000126
 3,0.00005433,0.00001483,0.00003416,-0.00006964,-0.00007011,0.00010117,
 0.00000702,0.00000873,-0.00003881,-0.00006202,0.00001911,-0.00000591,0
 .00002397,-0.00003723,-0.00002918,0.00003527,0.00003365,-0.00001207,-0
 .00006022,-0.00002846,-0.00000974,0.,0.00000690,-0.00003939,-0.0000293
 6,-0.00001500,-0.00000040,0.00013878,-0.00001843,0.00001470,-0.0000891
 3,0.00006679,0.00003062,0.00003723,-0.00001835,-0.00003121,0.00001154,
 -0.00002904,-0.00001993,-0.00008612,0.00006916,-0.00001137,0.00002961,
 -0.00002877,0.00006839,-0.00000209,-0.00005893,0.00007704,-0.00004755,
 0.00008865,-0.00001046,0.00001886,-0.00003263,-0.00003309,-0.00001258,
 -0.00005465,0.00003109,-0.00002935,0.00009146,0.00009879,0.00002599,-0
 .00007009,-0.00000803,-0.00014349,-0.00033701,0.01339115\\-0.00000054,
 -0.00000047,-0.00000176,-0.00000017,-0.00000138,-0.00000379,-0.0000011
 1,-0.00000025,-0.00000373,-0.00000204,0.00000046,-0.00000336,-0.000001
 38,0.00000069,-0.00000093,-0.00000038,-0.00000060,-0.00000498,0.000000
 04,-0.00000144,-0.00000408,-0.00000041,-0.00000161,-0.00000659,-0.0000
 0012,-0.00000171,-0.00000441,0.00000158,-0.00000098,0.00000162,0.00000
 095,-0.00000050,-0.00000012,0.00000300,-0.00000223,0.00000025,0.000002
 47,-0.00000183,0.00000196,0.00000298,-0.00000213,0.00000049,0.00000299
 ,-0.00000145,0.00000388,-0.00000101,-0.00000040,-0.00000509,0.00000142
 ,-0.00000016,0.00000310,0.00000077,-0.00000087,-0.00000382,0.00000216,
 -0.00000164,0.00000264,-0.00000206,0.00000199,0.00000076,-0.00000084,0
 .00000161,0.00000280,0.00000020,0.00000146,0.00000435,-0.00000168,0.00
 000073,-0.00000260,0.00000091,0.00000034,0.00000477,-0.00000063,0.0000
 0061,-0.00000142,0.00000070,0.00000087,0.00000373,-0.00000120,0.000001
 06,0.00000038,-0.00000154,0.00000265,0.00000461,-0.00000321,0.00000162
 ,-0.00000367,0.00000036,0.00000169,0.00000699,-0.00000223,0.00000107,-
 0.00000221,0.00000115,0.00000173,0.00000819,-0.00000224,0.00000076,-0.
 00000378,0.00000107,0.00000117,0.00000703,-0.00000204,0.00000137,-0.00
 000065,0.00000014,0.,0.00000129,-0.00000010,0.00000125,0.00000366,0.00
 000004,0.00000115,0.00000363,-0.00000031,-0.00000140,-0.00000258,0.000
 00161,0.00000046,0.00000412,0.00000028,-0.00000177,-0.00000641,0.00000
 134,0.00000082,0.00000612,-0.00000052,-0.00000200,-0.00000689,0.000000
 51,0.00000061,0.00000402,-0.00000005,-0.00000232,-0.00000816,-0.000000
 18,-0.00000050,-0.00000174,-0.00000341,0.00000221,-0.00000205,-0.00000
 196,0.00000203,0.00000062,-0.00000078,0.00000049,-0.00000044,-0.000002
 69,0.00000207,-0.00000099,-0.00000296,0.00000124,-0.00000432,-0.000001
 12,-0.00000025,-0.00000403,-0.00000241,0.00000058,-0.00000509,-0.00000
 106,0.00000207,0.00000369,0.00000226,-0.00000067,0.00000385,0.00000151
 ,0.00000007,0.00000491,0.00000062,0.00000033,0.00000270,-0.00000031,0.
 00000167,0.00000464,0.00000044,0.00000175,0.00000713,0.00000220,0.0000
 0033,0.00000667,0.00000215,0.00000026,0.00000729,-0.00000181,0.0000032
 5,0.00000583,-0.00000199,0.00000294,0.00000375,-0.00000194,0.00000302,
 0.00000441,0.00000185,0.,0.00000524,-0.00000064,0.00000269,0.00000684,
 0.00000118,0.00000176,0.00000872,0.00000093,0.00000135,0.00000641,0.00
 000237,0.00000010,0.00000748,0.00000221,0.00000066,0.00000853,0.000000
 47,0.00000200,0.00000810,0.00000081,0.00000233,0.00000959,0.00000034,0
 .00000017,0.00000193,0.00000348,-0.00000268,0.00000184,0.00000301,-0.0
 0000116,0.00000501,0.00000218,-0.00000060,0.00000411,0.00000405,-0.000
 00228,0.00000418,0.00000173,-0.00000140,0.00000063,0.00000250,-0.00000
 237,-0.00000079,0.00000349,-0.00000294,0.00000087,-0.00000153,0.000001
 37,0.00000040,-0.00000226,0.00000167,-0.00000198,-0.00000139,0.0000008
 2,-0.00000118,0.00000038,-0.00000240,-0.00000691,-0.00000135,-0.000001
 41,-0.00000754,-0.00000141,-0.00000093,-0.00000698,0.00000028,-0.00000
 114,-0.00000295,-0.00000023,-0.00000150,-0.00000547,0.00000136,-0.0000
 0251,-0.00000459,-0.00000176,0.00000022,-0.00000426,0.00000125,-0.0000
 0193,-0.00000346,-0.00000167,-0.00000031,-0.00000553,0.00000122,-0.000
 00284,-0.00000593,-0.00000117,-0.00000167,-0.00000881,0.00000046,-0.00
 000334,-0.00000907,0.00000033,-0.00000287,-0.00000774,-0.00000035,-0.0
 0000175,-0.00000598,-0.00000002,-0.00000249,-0.00000818,-0.00000160,-0
 .00000083,-0.00000773,-0.00000358,0.00000247,-0.00000241,-0.00000364,0
 .00000185,-0.00000482,-0.00000320,0.00000150,-0.00000403,0.00000253,-0
 .00000151,0.00000021\\\@


 EVERYBODY NEEDS BEAUTY AS WELL AS BREAD, PLACES TO PLAY IN AND PRAY IN,
 WHERE NATURE MAY HEAL AND CHEER AND GIVE STRENGTH TO BODY AND SOUL ALIKE.

                                    -- JOHN MUIR
 Job cpu time:       0 days 19 hours 46 minutes 58.0 seconds.
 File lengths (MBytes):  RWF=   7560 Int=      0 D2E=      0 Chk=     72 Scr=      1
 Normal termination of Gaussian 09 at Sun Oct 28 02:30:07 2018.
