 Entering Gaussian System, Link 0=g09
 Input=/net/work/kozuch/EnniatinDef2TZVP/nP_EB11Cs_out/Freq/nP_EB11Cs_above.com
 Output=/net/work/kozuch/EnniatinDef2TZVP/nP_EB11Cs_out/Freq/nP_EB11Cs_above.log
 Initial command:
 /afs/math/software/gaussian/g09.D01/opt/@sys/l1.exe "/scratch/kozuch_g09.lsYWyIs/Gau-10481.inp" -scrdir="/scratch/kozuch_g09.lsYWyIs/"
 Entering Link 1 = /afs/math/software/gaussian/g09.D01/opt/@sys/l1.exe PID=     10482.
  
 Copyright (c) 1988,1990,1992,1993,1995,1998,2003,2009,2013,
            Gaussian, Inc.  All Rights Reserved.
  
 This is part of the Gaussian(R) 09 program.  It is based on
 the Gaussian(R) 03 system (copyright 2003, Gaussian, Inc.),
 the Gaussian(R) 98 system (copyright 1998, Gaussian, Inc.),
 the Gaussian(R) 94 system (copyright 1995, Gaussian, Inc.),
 the Gaussian 92(TM) system (copyright 1992, Gaussian, Inc.),
 the Gaussian 90(TM) system (copyright 1990, Gaussian, Inc.),
 the Gaussian 88(TM) system (copyright 1988, Gaussian, Inc.),
 the Gaussian 86(TM) system (copyright 1986, Carnegie Mellon
 University), and the Gaussian 82(TM) system (copyright 1983,
 Carnegie Mellon University). Gaussian is a federally registered
 trademark of Gaussian, Inc.
  
 This software contains proprietary and confidential information,
 including trade secrets, belonging to Gaussian, Inc.
  
 This software is provided under written license and may be
 used, copied, transmitted, or stored only in accord with that
 written license.
  
 The following legend is applicable only to US Government
 contracts under FAR:
  
                    RESTRICTED RIGHTS LEGEND
  
 Use, reproduction and disclosure by the US Government is
 subject to restrictions as set forth in subparagraphs (a)
 and (c) of the Commercial Computer Software - Restricted
 Rights clause in FAR 52.227-19.
  
 Gaussian, Inc.
 340 Quinnipiac St., Bldg. 40, Wallingford CT 06492
  
  
 ---------------------------------------------------------------
 Warning -- This program may not be used in any manner that
 competes with the business of Gaussian, Inc. or will provide
 assistance to any competitor of Gaussian, Inc.  The licensee
 of this program is prohibited from giving any competitor of
 Gaussian, Inc. access to this program.  By using this program,
 the user acknowledges that Gaussian, Inc. is engaged in the
 business of creating and licensing software in the field of
 computational chemistry and represents and warrants to the
 licensee that it is not a competitor of Gaussian, Inc. and that
 it will not use this program in any manner prohibited above.
 ---------------------------------------------------------------
  

 Cite this work as:
 Gaussian 09, Revision D.01,
 M. J. Frisch, G. W. Trucks, H. B. Schlegel, G. E. Scuseria, 
 M. A. Robb, J. R. Cheeseman, G. Scalmani, V. Barone, B. Mennucci, 
 G. A. Petersson, H. Nakatsuji, M. Caricato, X. Li, H. P. Hratchian, 
 A. F. Izmaylov, J. Bloino, G. Zheng, J. L. Sonnenberg, M. Hada, 
 M. Ehara, K. Toyota, R. Fukuda, J. Hasegawa, M. Ishida, T. Nakajima, 
 Y. Honda, O. Kitao, H. Nakai, T. Vreven, J. A. Montgomery, Jr., 
 J. E. Peralta, F. Ogliaro, M. Bearpark, J. J. Heyd, E. Brothers, 
 K. N. Kudin, V. N. Staroverov, T. Keith, R. Kobayashi, J. Normand, 
 K. Raghavachari, A. Rendell, J. C. Burant, S. S. Iyengar, J. Tomasi, 
 M. Cossi, N. Rega, J. M. Millam, M. Klene, J. E. Knox, J. B. Cross, 
 V. Bakken, C. Adamo, J. Jaramillo, R. Gomperts, R. E. Stratmann, 
 O. Yazyev, A. J. Austin, R. Cammi, C. Pomelli, J. W. Ochterski, 
 R. L. Martin, K. Morokuma, V. G. Zakrzewski, G. A. Voth, 
 P. Salvador, J. J. Dannenberg, S. Dapprich, A. D. Daniels, 
 O. Farkas, J. B. Foresman, J. V. Ortiz, J. Cioslowski, 
 and D. J. Fox, Gaussian, Inc., Wallingford CT, 2013.
 
 ******************************************
 Gaussian 09:  AM64L-G09RevD.01 24-Apr-2013
                27-Oct-2018 
 ******************************************
 %chk=nP_EB11Cs_above.chk
 %mem=4GB
 ----------------------------------------------------------------------
 # bp86/gen pseudo=read freq int=ultrafine guess=checkpoint geom=checkp
 oint nosymm scf=(xqc,maxconventionalcycles=128) scrf=(solvent=n-Pentad
 ecane)
 ----------------------------------------------------------------------
 1/10=4,29=2,30=1,38=1/1,3;
 2/12=2,15=1,40=1/2;
 3/5=7,11=2,14=-4,16=1,17=8,25=1,30=1,70=2201,71=2,72=151,74=404,75=-5,116=-2,140=1/1,2,3;
 4/5=1/1;
 5/5=2,8=3,13=1,38=6,53=151,85=128,98=1/2,8;
 8/6=4,10=90,11=11/1;
 11/6=1,8=1,9=11,15=111,16=1,31=1/1,2,10;
 10/6=1,31=1/2;
 6/7=2,8=2,9=2,10=2,18=1,28=1/1;
 7/8=1,10=1,25=1,30=1/1,2,3,16;
 1/10=4,30=1/3;
 99//99;
 ---------------
 nP_EB11Cs_above
 ---------------
 Structure from the checkpoint file:  "nP_EB11Cs_above.chk"
 Charge =  1 Multiplicity = 1
 Redundant internal coordinates found in file.
 N,0,-2.8897875235,12.4931190005,12.4907967985
 C,0,-3.7406481774,13.6566793731,12.1387563592
 C,0,-3.0224702496,14.9599583677,12.5296483423
 O,0,-2.6103553165,15.2159926684,13.6566648014
 C,0,-2.8268122191,12.065861605,13.9028386446
 C,0,-5.1574634821,13.5782196394,12.7812844255
 C,0,-5.8969120565,12.3127146639,12.3114947672
 C,0,-5.9800216315,14.8383170406,12.4498165846
 O,0,-2.9248538319,15.7999430512,11.4625423815
 C,0,-1.437544952,10.5923275303,11.7137680299
 C,0,-2.1127272136,11.9639011303,11.4940873796
 O,0,-1.9954554004,12.5135875551,10.3746533805
 C,0,-1.9721859433,9.5593945486,10.6948533292
 C,0,-3.4964339586,9.3906041351,10.8489231783
 C,0,-1.2543429623,8.2070682292,10.8483659066
 C,0,-2.3462605504,17.1270661573,11.710587036
 O,0,-0.001149226,10.7573009955,11.4540930894
 O,0,-0.4190308735,16.6398207333,10.3521094391
 O,0,2.3627402396,13.1940799867,10.3437019875
 O,0,2.2965272322,15.9014387276,13.6333356592
 O,0,0.3799587654,11.2446673423,13.6615851904
 N,0,2.8416055281,12.4319414468,12.4578615658
 N,0,0.0351402069,17.4527677443,12.4524225152
 C,0,2.2720508739,11.1066640747,12.1084251527
 C,0,1.4636932982,17.6080941126,12.0813598958
 C,0,0.7905376881,11.0568454532,12.5204356489
 C,0,2.2434996866,16.3464341963,12.4910589251
 C,0,3.1788108881,12.7003767561,13.8700342309
 C,0,-0.3479917421,17.6315654632,13.8671382308
 C,0,3.071934228,9.9281019727,12.7377810268
 C,0,2.1040674853,18.8893806436,12.692268942
 C,0,4.5326301386,9.9405194211,12.252453278
 C,0,1.3680887145,20.1508518962,12.2062375166
 C,0,2.4052980331,8.5786398648,12.4069630979
 C,0,3.6025738044,18.9716473846,12.3428508302
 O,0,2.8838561304,15.8025753722,11.4193685
 C,0,3.7488197812,14.643475585,11.6758852408
 C,0,2.9019177448,13.3699659929,11.4605009287
 C,0,-0.8232020935,17.0286616626,11.4722492099
 C,0,4.9061962448,14.7002316954,10.6518710959
 C,0,-2.9883479936,18.1020698491,10.6962856065
 C,0,5.8222348399,13.4702109652,10.8046811453
 C,0,-2.3800614624,19.5107261819,10.8420922074
 C,0,5.7119733296,16.0028492399,10.7984599186
 C,0,-4.5173321936,18.1482668542,10.8627542139
 H,0,1.4873963347,17.6766803928,10.982703226
 H,0,2.0202230216,18.8227851798,13.7936017683
 H,0,4.1771804904,18.1250881054,12.7570857013
 H,0,3.7577266772,18.9943724259,11.2483406102
 H,0,4.0334102332,19.8978180976,12.7606485815
 H,0,1.8023507633,21.0491424511,12.6786386617
 H,0,1.4685520997,20.2666955402,11.1108875766
 H,0,0.2920947541,20.1298493993,12.4481103156
 H,0,4.1427540372,14.7311919302,12.6995049049
 H,0,4.4418213488,14.6701001733,9.647872076
 H,0,6.5147100044,16.0359561012,10.0411512961
 H,0,5.0784200541,16.8938174458,10.6614991372
 H,0,6.189928542,16.0660458003,11.7942919492
 H,0,6.2566601279,13.4174129515,11.8206690345
 H,0,5.2892253247,12.5248200195,10.6059091515
 H,0,6.6604326592,13.5362958195,10.0899174841
 H,0,4.2079327755,12.3832425878,14.1158820575
 H,0,3.0458329586,13.7693816793,14.0869699401
 H,0,2.4652282801,12.1464474098,14.4978145072
 H,0,2.3197219979,11.0350795857,11.0108505185
 H,0,3.0545025328,10.0500646265,13.8375017461
 H,0,2.9987198842,7.7531564887,12.83632075
 H,0,1.3856710503,8.5018655947,12.8226961724
 H,0,2.3483542352,8.4172819047,11.3145051779
 H,0,4.5846965498,9.7820077567,11.1589937257
 H,0,5.0448452049,10.8901800737,12.4821832132
 H,0,5.0997823464,9.126115244,12.7359258741
 H,0,-1.5579608271,10.2117357788,12.7389896613
 H,0,-1.7639438344,9.9704432835,9.6886720239
 H,0,-0.1648715755,8.3044991081,10.7151983575
 H,0,-1.4443596307,7.7653773144,11.8448658372
 H,0,-1.6276205196,7.4947304738,10.091859188
 H,0,-3.7606102473,9.045521738,11.8662252306
 H,0,-4.0433448247,10.3275667488,10.6475606206
 H,0,-3.8631211909,8.6315050313,10.1367969829
 H,0,-1.8310708316,11.6559520928,14.1221107796
 H,0,-2.9598715169,12.9577088663,14.5324427915
 H,0,-3.6084827445,11.323753719,14.1443018771
 H,0,-6.0989187073,14.9636515594,11.3577562044
 H,0,-6.9890822299,14.7515697776,12.8882917077
 H,0,-5.5223014945,15.7569349563,12.8560372173
 H,0,-5.3417158945,11.3896228285,12.5486956318
 H,0,-6.8847641315,12.2468764001,12.7997480698
 H,0,-6.0639888355,12.3379982979,11.2183839061
 H,0,-5.0346257216,13.5385822241,13.8803007979
 H,0,-3.8379454076,13.6423281767,11.0421140186
 H,0,-2.6033867587,17.4240486409,12.7383988482
 H,0,-2.7429993588,17.7159254002,9.6886349487
 H,0,-4.7978144467,18.5307300135,11.8623385901
 H,0,-4.9571170759,18.8269658815,10.111134652
 H,0,-4.9737466048,17.154008337,10.7321954279
 H,0,-1.2965960341,19.5220523405,10.6340198262
 H,0,-2.862819423,20.2022523566,10.130302003
 H,0,-2.5428472287,19.9150295685,11.8590273908
 H,0,0.5018754011,17.315712486,14.4897767016
 H,0,-0.6015801266,18.6820769671,14.0957129449
 H,0,-1.1935791528,16.9722834612,14.1076117368
 Cs,0,-0.0247781421,14.1213990768,8.8953222341
 Recover connectivity data from disk.

 GradGradGradGradGradGradGradGradGradGradGradGradGradGradGradGradGradGrad
 Berny optimization.
 Initialization pass.
                           ----------------------------
                           !    Initial Parameters    !
                           ! (Angstroms and Degrees)  !
 --------------------------                            --------------------------
 ! Name  Definition              Value          Derivative Info.                !
 --------------------------------------------------------------------------------
 ! R1    R(1,2)                  1.4838         calculate D2E/DX2 analytically  !
 ! R2    R(1,5)                  1.4766         calculate D2E/DX2 analytically  !
 ! R3    R(1,11)                 1.3702         calculate D2E/DX2 analytically  !
 ! R4    R(2,3)                  1.5385         calculate D2E/DX2 analytically  !
 ! R5    R(2,6)                  1.5577         calculate D2E/DX2 analytically  !
 ! R6    R(2,91)                 1.101          calculate D2E/DX2 analytically  !
 ! R7    R(3,4)                  1.227          calculate D2E/DX2 analytically  !
 ! R8    R(3,9)                  1.3615         calculate D2E/DX2 analytically  !
 ! R9    R(5,81)                 1.0989         calculate D2E/DX2 analytically  !
 ! R10   R(5,82)                 1.0998         calculate D2E/DX2 analytically  !
 ! R11   R(5,83)                 1.1046         calculate D2E/DX2 analytically  !
 ! R12   R(6,7)                  1.5392         calculate D2E/DX2 analytically  !
 ! R13   R(6,8)                  1.5409         calculate D2E/DX2 analytically  !
 ! R14   R(6,90)                 1.1066         calculate D2E/DX2 analytically  !
 ! R15   R(7,87)                 1.103          calculate D2E/DX2 analytically  !
 ! R16   R(7,88)                 1.1039         calculate D2E/DX2 analytically  !
 ! R17   R(7,89)                 1.1061         calculate D2E/DX2 analytically  !
 ! R18   R(8,84)                 1.1056         calculate D2E/DX2 analytically  !
 ! R19   R(8,85)                 1.1036         calculate D2E/DX2 analytically  !
 ! R20   R(8,86)                 1.1038         calculate D2E/DX2 analytically  !
 ! R21   R(9,16)                 1.4689         calculate D2E/DX2 analytically  !
 ! R22   R(10,11)                1.5445         calculate D2E/DX2 analytically  !
 ! R23   R(10,13)                1.5463         calculate D2E/DX2 analytically  !
 ! R24   R(10,17)                1.469          calculate D2E/DX2 analytically  !
 ! R25   R(10,73)                1.1002         calculate D2E/DX2 analytically  !
 ! R26   R(11,12)                1.2526         calculate D2E/DX2 analytically  !
 ! R27   R(12,103)               2.9423         calculate D2E/DX2 analytically  !
 ! R28   R(13,14)                1.5413         calculate D2E/DX2 analytically  !
 ! R29   R(13,15)                1.5387         calculate D2E/DX2 analytically  !
 ! R30   R(13,74)                1.1067         calculate D2E/DX2 analytically  !
 ! R31   R(14,78)                1.1062         calculate D2E/DX2 analytically  !
 ! R32   R(14,79)                1.1034         calculate D2E/DX2 analytically  !
 ! R33   R(14,80)                1.1035         calculate D2E/DX2 analytically  !
 ! R34   R(15,75)                1.1019         calculate D2E/DX2 analytically  !
 ! R35   R(15,76)                1.1064         calculate D2E/DX2 analytically  !
 ! R36   R(15,77)                1.1041         calculate D2E/DX2 analytically  !
 ! R37   R(16,39)                1.5447         calculate D2E/DX2 analytically  !
 ! R38   R(16,41)                1.5465         calculate D2E/DX2 analytically  !
 ! R39   R(16,92)                1.1003         calculate D2E/DX2 analytically  !
 ! R40   R(17,26)                1.3615         calculate D2E/DX2 analytically  !
 ! R41   R(18,39)                1.2527         calculate D2E/DX2 analytically  !
 ! R42   R(18,103)               2.936          calculate D2E/DX2 analytically  !
 ! R43   R(19,38)                1.2526         calculate D2E/DX2 analytically  !
 ! R44   R(19,103)               2.9424         calculate D2E/DX2 analytically  !
 ! R45   R(20,27)                1.227          calculate D2E/DX2 analytically  !
 ! R46   R(21,26)                1.2272         calculate D2E/DX2 analytically  !
 ! R47   R(22,24)                1.4842         calculate D2E/DX2 analytically  !
 ! R48   R(22,28)                1.4765         calculate D2E/DX2 analytically  !
 ! R49   R(22,38)                1.3705         calculate D2E/DX2 analytically  !
 ! R50   R(23,25)                1.4841         calculate D2E/DX2 analytically  !
 ! R51   R(23,29)                1.4765         calculate D2E/DX2 analytically  !
 ! R52   R(23,39)                1.3702         calculate D2E/DX2 analytically  !
 ! R53   R(24,26)                1.5385         calculate D2E/DX2 analytically  !
 ! R54   R(24,30)                1.5572         calculate D2E/DX2 analytically  !
 ! R55   R(24,65)                1.1009         calculate D2E/DX2 analytically  !
 ! R56   R(25,27)                1.5387         calculate D2E/DX2 analytically  !
 ! R57   R(25,31)                1.5572         calculate D2E/DX2 analytically  !
 ! R58   R(25,46)                1.1011         calculate D2E/DX2 analytically  !
 ! R59   R(27,36)                1.3617         calculate D2E/DX2 analytically  !
 ! R60   R(28,62)                1.1046         calculate D2E/DX2 analytically  !
 ! R61   R(28,63)                1.0989         calculate D2E/DX2 analytically  !
 ! R62   R(28,64)                1.1001         calculate D2E/DX2 analytically  !
 ! R63   R(29,100)               1.0999         calculate D2E/DX2 analytically  !
 ! R64   R(29,101)               1.1046         calculate D2E/DX2 analytically  !
 ! R65   R(29,102)               1.0989         calculate D2E/DX2 analytically  !
 ! R66   R(30,32)                1.5393         calculate D2E/DX2 analytically  !
 ! R67   R(30,34)                1.5411         calculate D2E/DX2 analytically  !
 ! R68   R(30,66)                1.1066         calculate D2E/DX2 analytically  !
 ! R69   R(31,33)                1.5392         calculate D2E/DX2 analytically  !
 ! R70   R(31,35)                1.5409         calculate D2E/DX2 analytically  !
 ! R71   R(31,47)                1.1065         calculate D2E/DX2 analytically  !
 ! R72   R(32,70)                1.1061         calculate D2E/DX2 analytically  !
 ! R73   R(32,71)                1.1032         calculate D2E/DX2 analytically  !
 ! R74   R(32,72)                1.1039         calculate D2E/DX2 analytically  !
 ! R75   R(33,51)                1.1039         calculate D2E/DX2 analytically  !
 ! R76   R(33,52)                1.106          calculate D2E/DX2 analytically  !
 ! R77   R(33,53)                1.103          calculate D2E/DX2 analytically  !
 ! R78   R(34,67)                1.1036         calculate D2E/DX2 analytically  !
 ! R79   R(34,68)                1.1038         calculate D2E/DX2 analytically  !
 ! R80   R(34,69)                1.1058         calculate D2E/DX2 analytically  !
 ! R81   R(35,48)                1.1038         calculate D2E/DX2 analytically  !
 ! R82   R(35,49)                1.1057         calculate D2E/DX2 analytically  !
 ! R83   R(35,50)                1.1036         calculate D2E/DX2 analytically  !
 ! R84   R(36,37)                1.4688         calculate D2E/DX2 analytically  !
 ! R85   R(37,38)                1.5445         calculate D2E/DX2 analytically  !
 ! R86   R(37,40)                1.5464         calculate D2E/DX2 analytically  !
 ! R87   R(37,54)                1.1003         calculate D2E/DX2 analytically  !
 ! R88   R(40,42)                1.5412         calculate D2E/DX2 analytically  !
 ! R89   R(40,44)                1.5387         calculate D2E/DX2 analytically  !
 ! R90   R(40,55)                1.1066         calculate D2E/DX2 analytically  !
 ! R91   R(41,43)                1.5413         calculate D2E/DX2 analytically  !
 ! R92   R(41,45)                1.5387         calculate D2E/DX2 analytically  !
 ! R93   R(41,93)                1.1066         calculate D2E/DX2 analytically  !
 ! R94   R(42,59)                1.1062         calculate D2E/DX2 analytically  !
 ! R95   R(42,60)                1.1033         calculate D2E/DX2 analytically  !
 ! R96   R(42,61)                1.1036         calculate D2E/DX2 analytically  !
 ! R97   R(43,97)                1.1033         calculate D2E/DX2 analytically  !
 ! R98   R(43,98)                1.1036         calculate D2E/DX2 analytically  !
 ! R99   R(43,99)                1.1064         calculate D2E/DX2 analytically  !
 ! R100  R(44,56)                1.1041         calculate D2E/DX2 analytically  !
 ! R101  R(44,57)                1.1018         calculate D2E/DX2 analytically  !
 ! R102  R(44,58)                1.1064         calculate D2E/DX2 analytically  !
 ! R103  R(45,94)                1.1064         calculate D2E/DX2 analytically  !
 ! R104  R(45,95)                1.1041         calculate D2E/DX2 analytically  !
 ! R105  R(45,96)                1.1018         calculate D2E/DX2 analytically  !
 ! A1    A(2,1,5)              118.5697         calculate D2E/DX2 analytically  !
 ! A2    A(2,1,11)             117.0969         calculate D2E/DX2 analytically  !
 ! A3    A(5,1,11)             124.0341         calculate D2E/DX2 analytically  !
 ! A4    A(1,2,3)              109.6519         calculate D2E/DX2 analytically  !
 ! A5    A(1,2,6)              112.5943         calculate D2E/DX2 analytically  !
 ! A6    A(1,2,91)             106.0665         calculate D2E/DX2 analytically  !
 ! A7    A(3,2,6)              111.2505         calculate D2E/DX2 analytically  !
 ! A8    A(3,2,91)             107.7787         calculate D2E/DX2 analytically  !
 ! A9    A(6,2,91)             109.2571         calculate D2E/DX2 analytically  !
 ! A10   A(2,3,4)              124.5343         calculate D2E/DX2 analytically  !
 ! A11   A(2,3,9)              110.9123         calculate D2E/DX2 analytically  !
 ! A12   A(4,3,9)              124.5455         calculate D2E/DX2 analytically  !
 ! A13   A(1,5,81)             109.7177         calculate D2E/DX2 analytically  !
 ! A14   A(1,5,82)             107.9175         calculate D2E/DX2 analytically  !
 ! A15   A(1,5,83)             111.9174         calculate D2E/DX2 analytically  !
 ! A16   A(81,5,82)            107.3309         calculate D2E/DX2 analytically  !
 ! A17   A(81,5,83)            110.3043         calculate D2E/DX2 analytically  !
 ! A18   A(82,5,83)            109.5159         calculate D2E/DX2 analytically  !
 ! A19   A(2,6,7)              110.6398         calculate D2E/DX2 analytically  !
 ! A20   A(2,6,8)              110.8317         calculate D2E/DX2 analytically  !
 ! A21   A(2,6,90)             108.09           calculate D2E/DX2 analytically  !
 ! A22   A(7,6,8)              110.5033         calculate D2E/DX2 analytically  !
 ! A23   A(7,6,90)             109.0881         calculate D2E/DX2 analytically  !
 ! A24   A(8,6,90)             107.5897         calculate D2E/DX2 analytically  !
 ! A25   A(6,7,87)             112.3733         calculate D2E/DX2 analytically  !
 ! A26   A(6,7,88)             110.1183         calculate D2E/DX2 analytically  !
 ! A27   A(6,7,89)             110.8191         calculate D2E/DX2 analytically  !
 ! A28   A(87,7,88)            107.7827         calculate D2E/DX2 analytically  !
 ! A29   A(87,7,89)            107.92           calculate D2E/DX2 analytically  !
 ! A30   A(88,7,89)            107.6559         calculate D2E/DX2 analytically  !
 ! A31   A(6,8,84)             111.2588         calculate D2E/DX2 analytically  !
 ! A32   A(6,8,85)             109.7756         calculate D2E/DX2 analytically  !
 ! A33   A(6,8,86)             112.3367         calculate D2E/DX2 analytically  !
 ! A34   A(84,8,85)            107.6386         calculate D2E/DX2 analytically  !
 ! A35   A(84,8,86)            108.2854         calculate D2E/DX2 analytically  !
 ! A36   A(85,8,86)            107.3581         calculate D2E/DX2 analytically  !
 ! A37   A(3,9,16)             116.9552         calculate D2E/DX2 analytically  !
 ! A38   A(11,10,13)           110.3867         calculate D2E/DX2 analytically  !
 ! A39   A(11,10,17)           107.6134         calculate D2E/DX2 analytically  !
 ! A40   A(11,10,73)           113.0732         calculate D2E/DX2 analytically  !
 ! A41   A(13,10,17)           107.2553         calculate D2E/DX2 analytically  !
 ! A42   A(13,10,73)           110.1887         calculate D2E/DX2 analytically  !
 ! A43   A(17,10,73)           108.0953         calculate D2E/DX2 analytically  !
 ! A44   A(1,11,10)            119.1746         calculate D2E/DX2 analytically  !
 ! A45   A(1,11,12)            122.2557         calculate D2E/DX2 analytically  !
 ! A46   A(10,11,12)           118.4178         calculate D2E/DX2 analytically  !
 ! A47   A(11,12,103)          138.7493         calculate D2E/DX2 analytically  !
 ! A48   A(10,13,14)           110.4399         calculate D2E/DX2 analytically  !
 ! A49   A(10,13,15)           111.1032         calculate D2E/DX2 analytically  !
 ! A50   A(10,13,74)           106.6145         calculate D2E/DX2 analytically  !
 ! A51   A(14,13,15)           110.8022         calculate D2E/DX2 analytically  !
 ! A52   A(14,13,74)           108.5209         calculate D2E/DX2 analytically  !
 ! A53   A(15,13,74)           109.2298         calculate D2E/DX2 analytically  !
 ! A54   A(13,14,78)           111.2385         calculate D2E/DX2 analytically  !
 ! A55   A(13,14,79)           112.2677         calculate D2E/DX2 analytically  !
 ! A56   A(13,14,80)           109.8423         calculate D2E/DX2 analytically  !
 ! A57   A(78,14,79)           108.3206         calculate D2E/DX2 analytically  !
 ! A58   A(78,14,80)           107.4275         calculate D2E/DX2 analytically  !
 ! A59   A(79,14,80)           107.5563         calculate D2E/DX2 analytically  !
 ! A60   A(13,15,75)           111.8077         calculate D2E/DX2 analytically  !
 ! A61   A(13,15,76)           111.1357         calculate D2E/DX2 analytically  !
 ! A62   A(13,15,77)           109.934          calculate D2E/DX2 analytically  !
 ! A63   A(75,15,76)           108.297          calculate D2E/DX2 analytically  !
 ! A64   A(75,15,77)           107.9694         calculate D2E/DX2 analytically  !
 ! A65   A(76,15,77)           107.5465         calculate D2E/DX2 analytically  !
 ! A66   A(9,16,39)            107.7442         calculate D2E/DX2 analytically  !
 ! A67   A(9,16,41)            107.1766         calculate D2E/DX2 analytically  !
 ! A68   A(9,16,92)            108.0322         calculate D2E/DX2 analytically  !
 ! A69   A(39,16,41)           110.385          calculate D2E/DX2 analytically  !
 ! A70   A(39,16,92)           113.0616         calculate D2E/DX2 analytically  !
 ! A71   A(41,16,92)           110.2097         calculate D2E/DX2 analytically  !
 ! A72   A(10,17,26)           117.0557         calculate D2E/DX2 analytically  !
 ! A73   A(39,18,103)          138.8729         calculate D2E/DX2 analytically  !
 ! A74   A(38,19,103)          138.0659         calculate D2E/DX2 analytically  !
 ! A75   A(24,22,28)           118.37           calculate D2E/DX2 analytically  !
 ! A76   A(24,22,38)           117.1747         calculate D2E/DX2 analytically  !
 ! A77   A(28,22,38)           124.1633         calculate D2E/DX2 analytically  !
 ! A78   A(25,23,29)           118.4666         calculate D2E/DX2 analytically  !
 ! A79   A(25,23,39)           117.1639         calculate D2E/DX2 analytically  !
 ! A80   A(29,23,39)           124.0796         calculate D2E/DX2 analytically  !
 ! A81   A(22,24,26)           109.5959         calculate D2E/DX2 analytically  !
 ! A82   A(22,24,30)           112.5526         calculate D2E/DX2 analytically  !
 ! A83   A(22,24,65)           106.0312         calculate D2E/DX2 analytically  !
 ! A84   A(26,24,30)           111.2161         calculate D2E/DX2 analytically  !
 ! A85   A(26,24,65)           107.8523         calculate D2E/DX2 analytically  !
 ! A86   A(30,24,65)           109.3579         calculate D2E/DX2 analytically  !
 ! A87   A(23,25,27)           109.5985         calculate D2E/DX2 analytically  !
 ! A88   A(23,25,31)           112.573          calculate D2E/DX2 analytically  !
 ! A89   A(23,25,46)           106.0646         calculate D2E/DX2 analytically  !
 ! A90   A(27,25,31)           111.2095         calculate D2E/DX2 analytically  !
 ! A91   A(27,25,46)           107.8088         calculate D2E/DX2 analytically  !
 ! A92   A(31,25,46)           109.3504         calculate D2E/DX2 analytically  !
 ! A93   A(17,26,21)           124.571          calculate D2E/DX2 analytically  !
 ! A94   A(17,26,24)           110.9359         calculate D2E/DX2 analytically  !
 ! A95   A(21,26,24)           124.4866         calculate D2E/DX2 analytically  !
 ! A96   A(20,27,25)           124.5494         calculate D2E/DX2 analytically  !
 ! A97   A(20,27,36)           124.5739         calculate D2E/DX2 analytically  !
 ! A98   A(25,27,36)           110.8691         calculate D2E/DX2 analytically  !
 ! A99   A(22,28,62)           111.9292         calculate D2E/DX2 analytically  !
 ! A100  A(22,28,63)           109.7579         calculate D2E/DX2 analytically  !
 ! A101  A(22,28,64)           107.8258         calculate D2E/DX2 analytically  !
 ! A102  A(62,28,63)           110.3718         calculate D2E/DX2 analytically  !
 ! A103  A(62,28,64)           109.437          calculate D2E/DX2 analytically  !
 ! A104  A(63,28,64)           107.3794         calculate D2E/DX2 analytically  !
 ! A105  A(23,29,100)          107.886          calculate D2E/DX2 analytically  !
 ! A106  A(23,29,101)          111.9007         calculate D2E/DX2 analytically  !
 ! A107  A(23,29,102)          109.6757         calculate D2E/DX2 analytically  !
 ! A108  A(100,29,101)         109.4729         calculate D2E/DX2 analytically  !
 ! A109  A(100,29,102)         107.3627         calculate D2E/DX2 analytically  !
 ! A110  A(101,29,102)         110.4046         calculate D2E/DX2 analytically  !
 ! A111  A(24,30,32)           110.7267         calculate D2E/DX2 analytically  !
 ! A112  A(24,30,34)           110.7187         calculate D2E/DX2 analytically  !
 ! A113  A(24,30,66)           108.0675         calculate D2E/DX2 analytically  !
 ! A114  A(32,30,34)           110.48           calculate D2E/DX2 analytically  !
 ! A115  A(32,30,66)           109.1109         calculate D2E/DX2 analytically  !
 ! A116  A(34,30,66)           107.6397         calculate D2E/DX2 analytically  !
 ! A117  A(25,31,33)           110.7212         calculate D2E/DX2 analytically  !
 ! A118  A(25,31,35)           110.786          calculate D2E/DX2 analytically  !
 ! A119  A(25,31,47)           108.0462         calculate D2E/DX2 analytically  !
 ! A120  A(33,31,35)           110.4651         calculate D2E/DX2 analytically  !
 ! A121  A(33,31,47)           109.1096         calculate D2E/DX2 analytically  !
 ! A122  A(35,31,47)           107.6138         calculate D2E/DX2 analytically  !
 ! A123  A(30,32,70)           110.806          calculate D2E/DX2 analytically  !
 ! A124  A(30,32,71)           112.4512         calculate D2E/DX2 analytically  !
 ! A125  A(30,32,72)           110.09           calculate D2E/DX2 analytically  !
 ! A126  A(70,32,71)           107.9007         calculate D2E/DX2 analytically  !
 ! A127  A(70,32,72)           107.6404         calculate D2E/DX2 analytically  !
 ! A128  A(71,32,72)           107.7778         calculate D2E/DX2 analytically  !
 ! A129  A(31,33,51)           110.1004         calculate D2E/DX2 analytically  !
 ! A130  A(31,33,52)           110.8009         calculate D2E/DX2 analytically  !
 ! A131  A(31,33,53)           112.4316         calculate D2E/DX2 analytically  !
 ! A132  A(51,33,52)           107.6279         calculate D2E/DX2 analytically  !
 ! A133  A(51,33,53)           107.7816         calculate D2E/DX2 analytically  !
 ! A134  A(52,33,53)           107.9242         calculate D2E/DX2 analytically  !
 ! A135  A(30,34,67)           109.8081         calculate D2E/DX2 analytically  !
 ! A136  A(30,34,68)           112.3119         calculate D2E/DX2 analytically  !
 ! A137  A(30,34,69)           111.2316         calculate D2E/DX2 analytically  !
 ! A138  A(67,34,68)           107.3468         calculate D2E/DX2 analytically  !
 ! A139  A(67,34,69)           107.6324         calculate D2E/DX2 analytically  !
 ! A140  A(68,34,69)           108.3236         calculate D2E/DX2 analytically  !
 ! A141  A(31,35,48)           112.3457         calculate D2E/DX2 analytically  !
 ! A142  A(31,35,49)           111.2249         calculate D2E/DX2 analytically  !
 ! A143  A(31,35,50)           109.7918         calculate D2E/DX2 analytically  !
 ! A144  A(48,35,49)           108.3123         calculate D2E/DX2 analytically  !
 ! A145  A(48,35,50)           107.3576         calculate D2E/DX2 analytically  !
 ! A146  A(49,35,50)           107.6209         calculate D2E/DX2 analytically  !
 ! A147  A(27,36,37)           117.0418         calculate D2E/DX2 analytically  !
 ! A148  A(36,37,38)           107.663          calculate D2E/DX2 analytically  !
 ! A149  A(36,37,40)           107.2252         calculate D2E/DX2 analytically  !
 ! A150  A(36,37,54)           108.0827         calculate D2E/DX2 analytically  !
 ! A151  A(38,37,40)           110.3841         calculate D2E/DX2 analytically  !
 ! A152  A(38,37,54)           113.0655         calculate D2E/DX2 analytically  !
 ! A153  A(40,37,54)           110.1915         calculate D2E/DX2 analytically  !
 ! A154  A(19,38,22)           122.2632         calculate D2E/DX2 analytically  !
 ! A155  A(19,38,37)           118.435          calculate D2E/DX2 analytically  !
 ! A156  A(22,38,37)           119.1437         calculate D2E/DX2 analytically  !
 ! A157  A(16,39,18)           118.4147         calculate D2E/DX2 analytically  !
 ! A158  A(16,39,23)           119.1809         calculate D2E/DX2 analytically  !
 ! A159  A(18,39,23)           122.2508         calculate D2E/DX2 analytically  !
 ! A160  A(37,40,42)           110.4804         calculate D2E/DX2 analytically  !
 ! A161  A(37,40,44)           111.0954         calculate D2E/DX2 analytically  !
 ! A162  A(37,40,55)           106.6021         calculate D2E/DX2 analytically  !
 ! A163  A(42,40,44)           110.7893         calculate D2E/DX2 analytically  !
 ! A164  A(42,40,55)           108.5201         calculate D2E/DX2 analytically  !
 ! A165  A(44,40,55)           109.2228         calculate D2E/DX2 analytically  !
 ! A166  A(16,41,43)           110.5055         calculate D2E/DX2 analytically  !
 ! A167  A(16,41,45)           111.1328         calculate D2E/DX2 analytically  !
 ! A168  A(16,41,93)           106.5683         calculate D2E/DX2 analytically  !
 ! A169  A(43,41,45)           110.7622         calculate D2E/DX2 analytically  !
 ! A170  A(43,41,93)           108.5145         calculate D2E/DX2 analytically  !
 ! A171  A(45,41,93)           109.2256         calculate D2E/DX2 analytically  !
 ! A172  A(40,42,59)           111.2572         calculate D2E/DX2 analytically  !
 ! A173  A(40,42,60)           112.2616         calculate D2E/DX2 analytically  !
 ! A174  A(40,42,61)           109.842          calculate D2E/DX2 analytically  !
 ! A175  A(59,42,60)           108.317          calculate D2E/DX2 analytically  !
 ! A176  A(59,42,61)           107.4237         calculate D2E/DX2 analytically  !
 ! A177  A(60,42,61)           107.5508         calculate D2E/DX2 analytically  !
 ! A178  A(41,43,97)           112.2779         calculate D2E/DX2 analytically  !
 ! A179  A(41,43,98)           109.8181         calculate D2E/DX2 analytically  !
 ! A180  A(41,43,99)           111.276          calculate D2E/DX2 analytically  !
 ! A181  A(97,43,98)           107.5479         calculate D2E/DX2 analytically  !
 ! A182  A(97,43,99)           108.3047         calculate D2E/DX2 analytically  !
 ! A183  A(98,43,99)           107.4266         calculate D2E/DX2 analytically  !
 ! A184  A(40,44,56)           109.9247         calculate D2E/DX2 analytically  !
 ! A185  A(40,44,57)           111.8152         calculate D2E/DX2 analytically  !
 ! A186  A(40,44,58)           111.1203         calculate D2E/DX2 analytically  !
 ! A187  A(56,44,57)           107.9725         calculate D2E/DX2 analytically  !
 ! A188  A(56,44,58)           107.5521         calculate D2E/DX2 analytically  !
 ! A189  A(57,44,58)           108.3063         calculate D2E/DX2 analytically  !
 ! A190  A(41,45,94)           111.1019         calculate D2E/DX2 analytically  !
 ! A191  A(41,45,95)           109.9145         calculate D2E/DX2 analytically  !
 ! A192  A(41,45,96)           111.8218         calculate D2E/DX2 analytically  !
 ! A193  A(94,45,95)           107.5518         calculate D2E/DX2 analytically  !
 ! A194  A(94,45,96)           108.2999         calculate D2E/DX2 analytically  !
 ! A195  A(95,45,96)           108.0023         calculate D2E/DX2 analytically  !
 ! A196  A(12,103,18)           97.4303         calculate D2E/DX2 analytically  !
 ! A197  A(12,103,19)           97.1091         calculate D2E/DX2 analytically  !
 ! A198  A(18,103,19)           97.7614         calculate D2E/DX2 analytically  !
 ! D1    D(5,1,2,3)             77.53           calculate D2E/DX2 analytically  !
 ! D2    D(5,1,2,6)            -46.9045         calculate D2E/DX2 analytically  !
 ! D3    D(5,1,2,91)          -166.35           calculate D2E/DX2 analytically  !
 ! D4    D(11,1,2,3)           -96.4434         calculate D2E/DX2 analytically  !
 ! D5    D(11,1,2,6)           139.1221         calculate D2E/DX2 analytically  !
 ! D6    D(11,1,2,91)           19.6766         calculate D2E/DX2 analytically  !
 ! D7    D(2,1,5,81)          -147.6048         calculate D2E/DX2 analytically  !
 ! D8    D(2,1,5,82)           -30.9603         calculate D2E/DX2 analytically  !
 ! D9    D(2,1,5,83)            89.6065         calculate D2E/DX2 analytically  !
 ! D10   D(11,1,5,81)           25.9192         calculate D2E/DX2 analytically  !
 ! D11   D(11,1,5,82)          142.5638         calculate D2E/DX2 analytically  !
 ! D12   D(11,1,5,83)          -96.8694         calculate D2E/DX2 analytically  !
 ! D13   D(2,1,11,10)         -167.4619         calculate D2E/DX2 analytically  !
 ! D14   D(2,1,11,12)            7.9845         calculate D2E/DX2 analytically  !
 ! D15   D(5,1,11,10)           18.9263         calculate D2E/DX2 analytically  !
 ! D16   D(5,1,11,12)         -165.6273         calculate D2E/DX2 analytically  !
 ! D17   D(1,2,3,4)            -55.6689         calculate D2E/DX2 analytically  !
 ! D18   D(1,2,3,9)            125.3169         calculate D2E/DX2 analytically  !
 ! D19   D(6,2,3,4)             69.5431         calculate D2E/DX2 analytically  !
 ! D20   D(6,2,3,9)           -109.4711         calculate D2E/DX2 analytically  !
 ! D21   D(91,2,3,4)          -170.7003         calculate D2E/DX2 analytically  !
 ! D22   D(91,2,3,9)            10.2855         calculate D2E/DX2 analytically  !
 ! D23   D(1,2,6,7)            -59.979          calculate D2E/DX2 analytically  !
 ! D24   D(1,2,6,8)            177.0793         calculate D2E/DX2 analytically  !
 ! D25   D(1,2,6,90)            59.4052         calculate D2E/DX2 analytically  !
 ! D26   D(3,2,6,7)            176.4706         calculate D2E/DX2 analytically  !
 ! D27   D(3,2,6,8)             53.5289         calculate D2E/DX2 analytically  !
 ! D28   D(3,2,6,90)           -64.1452         calculate D2E/DX2 analytically  !
 ! D29   D(91,2,6,7)            57.5959         calculate D2E/DX2 analytically  !
 ! D30   D(91,2,6,8)           -65.3458         calculate D2E/DX2 analytically  !
 ! D31   D(91,2,6,90)          176.9801         calculate D2E/DX2 analytically  !
 ! D32   D(2,3,9,16)           175.7215         calculate D2E/DX2 analytically  !
 ! D33   D(4,3,9,16)            -3.2926         calculate D2E/DX2 analytically  !
 ! D34   D(2,6,7,87)            57.7993         calculate D2E/DX2 analytically  !
 ! D35   D(2,6,7,88)           177.9658         calculate D2E/DX2 analytically  !
 ! D36   D(2,6,7,89)           -63.0309         calculate D2E/DX2 analytically  !
 ! D37   D(8,6,7,87)          -179.0685         calculate D2E/DX2 analytically  !
 ! D38   D(8,6,7,88)           -58.9021         calculate D2E/DX2 analytically  !
 ! D39   D(8,6,7,89)            60.1012         calculate D2E/DX2 analytically  !
 ! D40   D(90,6,7,87)          -60.9814         calculate D2E/DX2 analytically  !
 ! D41   D(90,6,7,88)           59.1851         calculate D2E/DX2 analytically  !
 ! D42   D(90,6,7,89)          178.1884         calculate D2E/DX2 analytically  !
 ! D43   D(2,6,8,84)            59.3331         calculate D2E/DX2 analytically  !
 ! D44   D(2,6,8,85)           178.3715         calculate D2E/DX2 analytically  !
 ! D45   D(2,6,8,86)           -62.256          calculate D2E/DX2 analytically  !
 ! D46   D(7,6,8,84)           -63.6875         calculate D2E/DX2 analytically  !
 ! D47   D(7,6,8,85)            55.3509         calculate D2E/DX2 analytically  !
 ! D48   D(7,6,8,86)           174.7234         calculate D2E/DX2 analytically  !
 ! D49   D(90,6,8,84)          177.3122         calculate D2E/DX2 analytically  !
 ! D50   D(90,6,8,85)          -63.6494         calculate D2E/DX2 analytically  !
 ! D51   D(90,6,8,86)           55.7231         calculate D2E/DX2 analytically  !
 ! D52   D(3,9,16,39)           90.9559         calculate D2E/DX2 analytically  !
 ! D53   D(3,9,16,41)         -150.247          calculate D2E/DX2 analytically  !
 ! D54   D(3,9,16,92)          -31.5035         calculate D2E/DX2 analytically  !
 ! D55   D(13,10,11,1)         116.9914         calculate D2E/DX2 analytically  !
 ! D56   D(13,10,11,12)        -58.6305         calculate D2E/DX2 analytically  !
 ! D57   D(17,10,11,1)        -126.2649         calculate D2E/DX2 analytically  !
 ! D58   D(17,10,11,12)         58.1132         calculate D2E/DX2 analytically  !
 ! D59   D(73,10,11,1)          -6.9604         calculate D2E/DX2 analytically  !
 ! D60   D(73,10,11,12)        177.4177         calculate D2E/DX2 analytically  !
 ! D61   D(11,10,13,14)        -59.748          calculate D2E/DX2 analytically  !
 ! D62   D(11,10,13,15)        176.8792         calculate D2E/DX2 analytically  !
 ! D63   D(11,10,13,74)         57.9602         calculate D2E/DX2 analytically  !
 ! D64   D(17,10,13,14)       -176.7138         calculate D2E/DX2 analytically  !
 ! D65   D(17,10,13,15)         59.9134         calculate D2E/DX2 analytically  !
 ! D66   D(17,10,13,74)        -59.0056         calculate D2E/DX2 analytically  !
 ! D67   D(73,10,13,14)         65.8514         calculate D2E/DX2 analytically  !
 ! D68   D(73,10,13,15)        -57.5214         calculate D2E/DX2 analytically  !
 ! D69   D(73,10,13,74)       -176.4404         calculate D2E/DX2 analytically  !
 ! D70   D(11,10,17,26)         92.2005         calculate D2E/DX2 analytically  !
 ! D71   D(13,10,17,26)       -149.0275         calculate D2E/DX2 analytically  !
 ! D72   D(73,10,17,26)        -30.2327         calculate D2E/DX2 analytically  !
 ! D73   D(1,11,12,103)        103.8293         calculate D2E/DX2 analytically  !
 ! D74   D(10,11,12,103)       -80.6913         calculate D2E/DX2 analytically  !
 ! D75   D(11,12,103,18)       -74.3107         calculate D2E/DX2 analytically  !
 ! D76   D(11,12,103,19)        24.5198         calculate D2E/DX2 analytically  !
 ! D77   D(10,13,14,78)        -59.6337         calculate D2E/DX2 analytically  !
 ! D78   D(10,13,14,79)         61.9374         calculate D2E/DX2 analytically  !
 ! D79   D(10,13,14,80)       -178.44           calculate D2E/DX2 analytically  !
 ! D80   D(15,13,14,78)         63.9135         calculate D2E/DX2 analytically  !
 ! D81   D(15,13,14,79)       -174.5154         calculate D2E/DX2 analytically  !
 ! D82   D(15,13,14,80)        -54.8928         calculate D2E/DX2 analytically  !
 ! D83   D(74,13,14,78)       -176.1633         calculate D2E/DX2 analytically  !
 ! D84   D(74,13,14,79)        -54.5922         calculate D2E/DX2 analytically  !
 ! D85   D(74,13,14,80)         65.0304         calculate D2E/DX2 analytically  !
 ! D86   D(10,13,15,75)        -58.3078         calculate D2E/DX2 analytically  !
 ! D87   D(10,13,15,76)         62.8377         calculate D2E/DX2 analytically  !
 ! D88   D(10,13,15,77)       -178.2138         calculate D2E/DX2 analytically  !
 ! D89   D(14,13,15,75)        178.5273         calculate D2E/DX2 analytically  !
 ! D90   D(14,13,15,76)        -60.3273         calculate D2E/DX2 analytically  !
 ! D91   D(14,13,15,77)         58.6212         calculate D2E/DX2 analytically  !
 ! D92   D(74,13,15,75)         59.0288         calculate D2E/DX2 analytically  !
 ! D93   D(74,13,15,76)       -179.8258         calculate D2E/DX2 analytically  !
 ! D94   D(74,13,15,77)        -60.8773         calculate D2E/DX2 analytically  !
 ! D95   D(9,16,39,18)          57.5572         calculate D2E/DX2 analytically  !
 ! D96   D(9,16,39,23)        -126.8442         calculate D2E/DX2 analytically  !
 ! D97   D(41,16,39,18)        -59.1669         calculate D2E/DX2 analytically  !
 ! D98   D(41,16,39,23)        116.4317         calculate D2E/DX2 analytically  !
 ! D99   D(92,16,39,18)        176.8635         calculate D2E/DX2 analytically  !
 ! D100  D(92,16,39,23)         -7.5379         calculate D2E/DX2 analytically  !
 ! D101  D(9,16,41,43)        -177.1262         calculate D2E/DX2 analytically  !
 ! D102  D(9,16,41,45)          59.485          calculate D2E/DX2 analytically  !
 ! D103  D(9,16,41,93)         -59.4173         calculate D2E/DX2 analytically  !
 ! D104  D(39,16,41,43)        -60.0503         calculate D2E/DX2 analytically  !
 ! D105  D(39,16,41,45)        176.561          calculate D2E/DX2 analytically  !
 ! D106  D(39,16,41,93)         57.6586         calculate D2E/DX2 analytically  !
 ! D107  D(92,16,41,43)         65.5482         calculate D2E/DX2 analytically  !
 ! D108  D(92,16,41,45)        -57.8406         calculate D2E/DX2 analytically  !
 ! D109  D(92,16,41,93)       -176.7429         calculate D2E/DX2 analytically  !
 ! D110  D(10,17,26,21)         -2.8187         calculate D2E/DX2 analytically  !
 ! D111  D(10,17,26,24)        176.2845         calculate D2E/DX2 analytically  !
 ! D112  D(103,18,39,16)       -80.5644         calculate D2E/DX2 analytically  !
 ! D113  D(103,18,39,23)       103.9797         calculate D2E/DX2 analytically  !
 ! D114  D(39,18,103,12)        24.5041         calculate D2E/DX2 analytically  !
 ! D115  D(39,18,103,19)       -73.76           calculate D2E/DX2 analytically  !
 ! D116  D(103,19,38,22)       104.46           calculate D2E/DX2 analytically  !
 ! D117  D(103,19,38,37)       -80.1515         calculate D2E/DX2 analytically  !
 ! D118  D(38,19,103,12)       -74.671          calculate D2E/DX2 analytically  !
 ! D119  D(38,19,103,18)        23.8705         calculate D2E/DX2 analytically  !
 ! D120  D(28,22,24,26)         76.7718         calculate D2E/DX2 analytically  !
 ! D121  D(28,22,24,30)        -47.5464         calculate D2E/DX2 analytically  !
 ! D122  D(28,22,24,65)       -167.0688         calculate D2E/DX2 analytically  !
 ! D123  D(38,22,24,26)        -97.2833         calculate D2E/DX2 analytically  !
 ! D124  D(38,22,24,30)        138.3985         calculate D2E/DX2 analytically  !
 ! D125  D(38,22,24,65)         18.8761         calculate D2E/DX2 analytically  !
 ! D126  D(24,22,28,62)         88.3228         calculate D2E/DX2 analytically  !
 ! D127  D(24,22,28,63)       -148.7656         calculate D2E/DX2 analytically  !
 ! D128  D(24,22,28,64)        -32.0931         calculate D2E/DX2 analytically  !
 ! D129  D(38,22,28,62)        -98.0706         calculate D2E/DX2 analytically  !
 ! D130  D(38,22,28,63)         24.8409         calculate D2E/DX2 analytically  !
 ! D131  D(38,22,28,64)        141.5134         calculate D2E/DX2 analytically  !
 ! D132  D(24,22,38,19)          8.3519         calculate D2E/DX2 analytically  !
 ! D133  D(24,22,38,37)       -167.0051         calculate D2E/DX2 analytically  !
 ! D134  D(28,22,38,19)       -165.3248         calculate D2E/DX2 analytically  !
 ! D135  D(28,22,38,37)         19.3182         calculate D2E/DX2 analytically  !
 ! D136  D(29,23,25,27)         77.1488         calculate D2E/DX2 analytically  !
 ! D137  D(29,23,25,31)        -47.1773         calculate D2E/DX2 analytically  !
 ! D138  D(29,23,25,46)       -166.7235         calculate D2E/DX2 analytically  !
 ! D139  D(39,23,25,27)        -96.9223         calculate D2E/DX2 analytically  !
 ! D140  D(39,23,25,31)        138.7517         calculate D2E/DX2 analytically  !
 ! D141  D(39,23,25,46)         19.2054         calculate D2E/DX2 analytically  !
 ! D142  D(25,23,29,100)       -30.806          calculate D2E/DX2 analytically  !
 ! D143  D(25,23,29,101)        89.6765         calculate D2E/DX2 analytically  !
 ! D144  D(25,23,29,102)      -147.4481         calculate D2E/DX2 analytically  !
 ! D145  D(39,23,29,100)       142.8235         calculate D2E/DX2 analytically  !
 ! D146  D(39,23,29,101)       -96.694          calculate D2E/DX2 analytically  !
 ! D147  D(39,23,29,102)        26.1814         calculate D2E/DX2 analytically  !
 ! D148  D(25,23,39,16)       -167.5011         calculate D2E/DX2 analytically  !
 ! D149  D(25,23,39,18)          7.9212         calculate D2E/DX2 analytically  !
 ! D150  D(29,23,39,16)         18.7931         calculate D2E/DX2 analytically  !
 ! D151  D(29,23,39,18)       -165.7846         calculate D2E/DX2 analytically  !
 ! D152  D(22,24,26,17)        123.3848         calculate D2E/DX2 analytically  !
 ! D153  D(22,24,26,21)        -57.5111         calculate D2E/DX2 analytically  !
 ! D154  D(30,24,26,17)       -111.5219         calculate D2E/DX2 analytically  !
 ! D155  D(30,24,26,21)         67.5822         calculate D2E/DX2 analytically  !
 ! D156  D(65,24,26,17)          8.3843         calculate D2E/DX2 analytically  !
 ! D157  D(65,24,26,21)       -172.5116         calculate D2E/DX2 analytically  !
 ! D158  D(22,24,30,32)        -59.9245         calculate D2E/DX2 analytically  !
 ! D159  D(22,24,30,34)        177.1816         calculate D2E/DX2 analytically  !
 ! D160  D(22,24,30,66)         59.5247         calculate D2E/DX2 analytically  !
 ! D161  D(26,24,30,32)        176.6553         calculate D2E/DX2 analytically  !
 ! D162  D(26,24,30,34)         53.7615         calculate D2E/DX2 analytically  !
 ! D163  D(26,24,30,66)        -63.8954         calculate D2E/DX2 analytically  !
 ! D164  D(65,24,30,32)         57.6466         calculate D2E/DX2 analytically  !
 ! D165  D(65,24,30,34)        -65.2473         calculate D2E/DX2 analytically  !
 ! D166  D(65,24,30,66)        177.0958         calculate D2E/DX2 analytically  !
 ! D167  D(23,25,27,20)        -57.2867         calculate D2E/DX2 analytically  !
 ! D168  D(23,25,27,36)        123.6774         calculate D2E/DX2 analytically  !
 ! D169  D(31,25,27,20)         67.83           calculate D2E/DX2 analytically  !
 ! D170  D(31,25,27,36)       -111.2059         calculate D2E/DX2 analytically  !
 ! D171  D(46,25,27,20)       -172.3045         calculate D2E/DX2 analytically  !
 ! D172  D(46,25,27,36)          8.6597         calculate D2E/DX2 analytically  !
 ! D173  D(23,25,31,33)        -60.0371         calculate D2E/DX2 analytically  !
 ! D174  D(23,25,31,35)        177.0451         calculate D2E/DX2 analytically  !
 ! D175  D(23,25,31,47)         59.3941         calculate D2E/DX2 analytically  !
 ! D176  D(27,25,31,33)        176.5294         calculate D2E/DX2 analytically  !
 ! D177  D(27,25,31,35)         53.6116         calculate D2E/DX2 analytically  !
 ! D178  D(27,25,31,47)        -64.0394         calculate D2E/DX2 analytically  !
 ! D179  D(46,25,31,33)         57.5833         calculate D2E/DX2 analytically  !
 ! D180  D(46,25,31,35)        -65.3345         calculate D2E/DX2 analytically  !
 ! D181  D(46,25,31,47)        177.0145         calculate D2E/DX2 analytically  !
 ! D182  D(20,27,36,37)         -3.2433         calculate D2E/DX2 analytically  !
 ! D183  D(25,27,36,37)        175.7923         calculate D2E/DX2 analytically  !
 ! D184  D(24,30,32,70)        -63.3169         calculate D2E/DX2 analytically  !
 ! D185  D(24,30,32,71)         57.5331         calculate D2E/DX2 analytically  !
 ! D186  D(24,30,32,72)        177.7254         calculate D2E/DX2 analytically  !
 ! D187  D(34,30,32,70)         59.7153         calculate D2E/DX2 analytically  !
 ! D188  D(34,30,32,71)       -179.4347         calculate D2E/DX2 analytically  !
 ! D189  D(34,30,32,72)        -59.2424         calculate D2E/DX2 analytically  !
 ! D190  D(66,30,32,70)        177.8635         calculate D2E/DX2 analytically  !
 ! D191  D(66,30,32,71)        -61.2865         calculate D2E/DX2 analytically  !
 ! D192  D(66,30,32,72)         58.9058         calculate D2E/DX2 analytically  !
 ! D193  D(24,30,34,67)        178.4641         calculate D2E/DX2 analytically  !
 ! D194  D(24,30,34,68)        -62.1716         calculate D2E/DX2 analytically  !
 ! D195  D(24,30,34,69)         59.4296         calculate D2E/DX2 analytically  !
 ! D196  D(32,30,34,67)         55.4273         calculate D2E/DX2 analytically  !
 ! D197  D(32,30,34,68)        174.7915         calculate D2E/DX2 analytically  !
 ! D198  D(32,30,34,69)        -63.6072         calculate D2E/DX2 analytically  !
 ! D199  D(66,30,34,67)        -63.6175         calculate D2E/DX2 analytically  !
 ! D200  D(66,30,34,68)         55.7468         calculate D2E/DX2 analytically  !
 ! D201  D(66,30,34,69)        177.348          calculate D2E/DX2 analytically  !
 ! D202  D(25,31,33,51)        177.591          calculate D2E/DX2 analytically  !
 ! D203  D(25,31,33,52)        -63.4633         calculate D2E/DX2 analytically  !
 ! D204  D(25,31,33,53)         57.3997         calculate D2E/DX2 analytically  !
 ! D205  D(35,31,33,51)        -59.3052         calculate D2E/DX2 analytically  !
 ! D206  D(35,31,33,52)         59.6405         calculate D2E/DX2 analytically  !
 ! D207  D(35,31,33,53)       -179.4965         calculate D2E/DX2 analytically  !
 ! D208  D(47,31,33,51)         58.8017         calculate D2E/DX2 analytically  !
 ! D209  D(47,31,33,52)        177.7474         calculate D2E/DX2 analytically  !
 ! D210  D(47,31,33,53)        -61.3896         calculate D2E/DX2 analytically  !
 ! D211  D(25,31,35,48)        -62.0968         calculate D2E/DX2 analytically  !
 ! D212  D(25,31,35,49)         59.5089         calculate D2E/DX2 analytically  !
 ! D213  D(25,31,35,50)        178.5144         calculate D2E/DX2 analytically  !
 ! D214  D(33,31,35,48)        174.8371         calculate D2E/DX2 analytically  !
 ! D215  D(33,31,35,49)        -63.5571         calculate D2E/DX2 analytically  !
 ! D216  D(33,31,35,50)         55.4484         calculate D2E/DX2 analytically  !
 ! D217  D(47,31,35,48)         55.8181         calculate D2E/DX2 analytically  !
 ! D218  D(47,31,35,49)        177.4239         calculate D2E/DX2 analytically  !
 ! D219  D(47,31,35,50)        -63.5706         calculate D2E/DX2 analytically  !
 ! D220  D(27,36,37,38)         92.9218         calculate D2E/DX2 analytically  !
 ! D221  D(27,36,37,40)       -148.2992         calculate D2E/DX2 analytically  !
 ! D222  D(27,36,37,54)        -29.524          calculate D2E/DX2 analytically  !
 ! D223  D(36,37,38,19)         58.093          calculate D2E/DX2 analytically  !
 ! D224  D(36,37,38,22)       -126.3714         calculate D2E/DX2 analytically  !
 ! D225  D(40,37,38,19)        -58.6419         calculate D2E/DX2 analytically  !
 ! D226  D(40,37,38,22)        116.8937         calculate D2E/DX2 analytically  !
 ! D227  D(54,37,38,19)        177.4102         calculate D2E/DX2 analytically  !
 ! D228  D(54,37,38,22)         -7.0542         calculate D2E/DX2 analytically  !
 ! D229  D(36,37,40,42)       -176.9218         calculate D2E/DX2 analytically  !
 ! D230  D(36,37,40,44)         59.6987         calculate D2E/DX2 analytically  !
 ! D231  D(36,37,40,55)        -59.2            calculate D2E/DX2 analytically  !
 ! D232  D(38,37,40,42)        -59.9154         calculate D2E/DX2 analytically  !
 ! D233  D(38,37,40,44)        176.7051         calculate D2E/DX2 analytically  !
 ! D234  D(38,37,40,55)         57.8063         calculate D2E/DX2 analytically  !
 ! D235  D(54,37,40,42)         65.6742         calculate D2E/DX2 analytically  !
 ! D236  D(54,37,40,44)        -57.7053         calculate D2E/DX2 analytically  !
 ! D237  D(54,37,40,55)       -176.604          calculate D2E/DX2 analytically  !
 ! D238  D(37,40,42,59)        -59.5187         calculate D2E/DX2 analytically  !
 ! D239  D(37,40,42,60)         62.0568         calculate D2E/DX2 analytically  !
 ! D240  D(37,40,42,61)       -178.3318         calculate D2E/DX2 analytically  !
 ! D241  D(44,40,42,59)         64.038          calculate D2E/DX2 analytically  !
 ! D242  D(44,40,42,60)       -174.3865         calculate D2E/DX2 analytically  !
 ! D243  D(44,40,42,61)        -54.7751         calculate D2E/DX2 analytically  !
 ! D244  D(55,40,42,59)       -176.0557         calculate D2E/DX2 analytically  !
 ! D245  D(55,40,42,60)        -54.4802         calculate D2E/DX2 analytically  !
 ! D246  D(55,40,42,61)         65.1312         calculate D2E/DX2 analytically  !
 ! D247  D(37,40,44,56)       -178.4437         calculate D2E/DX2 analytically  !
 ! D248  D(37,40,44,57)        -58.5352         calculate D2E/DX2 analytically  !
 ! D249  D(37,40,44,58)         62.6165         calculate D2E/DX2 analytically  !
 ! D250  D(42,40,44,56)         58.354          calculate D2E/DX2 analytically  !
 ! D251  D(42,40,44,57)        178.2625         calculate D2E/DX2 analytically  !
 ! D252  D(42,40,44,58)        -60.5858         calculate D2E/DX2 analytically  !
 ! D253  D(55,40,44,56)        -61.1312         calculate D2E/DX2 analytically  !
 ! D254  D(55,40,44,57)         58.7773         calculate D2E/DX2 analytically  !
 ! D255  D(55,40,44,58)        179.929          calculate D2E/DX2 analytically  !
 ! D256  D(16,41,43,97)         61.7417         calculate D2E/DX2 analytically  !
 ! D257  D(16,41,43,98)       -178.656          calculate D2E/DX2 analytically  !
 ! D258  D(16,41,43,99)        -59.843          calculate D2E/DX2 analytically  !
 ! D259  D(45,41,43,97)       -174.6552         calculate D2E/DX2 analytically  !
 ! D260  D(45,41,43,98)        -55.0529         calculate D2E/DX2 analytically  !
 ! D261  D(45,41,43,99)         63.7601         calculate D2E/DX2 analytically  !
 ! D262  D(93,41,43,97)        -54.7654         calculate D2E/DX2 analytically  !
 ! D263  D(93,41,43,98)         64.8369         calculate D2E/DX2 analytically  !
 ! D264  D(93,41,43,99)       -176.3501         calculate D2E/DX2 analytically  !
 ! D265  D(16,41,45,94)         62.6971         calculate D2E/DX2 analytically  !
 ! D266  D(16,41,45,95)       -178.3815         calculate D2E/DX2 analytically  !
 ! D267  D(16,41,45,96)        -58.438          calculate D2E/DX2 analytically  !
 ! D268  D(43,41,45,94)        -60.5445         calculate D2E/DX2 analytically  !
 ! D269  D(43,41,45,95)         58.3768         calculate D2E/DX2 analytically  !
 ! D270  D(43,41,45,96)        178.3203         calculate D2E/DX2 analytically  !
 ! D271  D(93,41,45,94)        179.9921         calculate D2E/DX2 analytically  !
 ! D272  D(93,41,45,95)        -61.0865         calculate D2E/DX2 analytically  !
 ! D273  D(93,41,45,96)         58.857          calculate D2E/DX2 analytically  !
 --------------------------------------------------------------------------------
 Trust Radius=3.00D-01 FncErr=1.00D-07 GrdErr=1.00D-07
 Number of steps in this run=      2 maximum allowed number of steps=      2.
 GradGradGradGradGradGradGradGradGradGradGradGradGradGradGradGradGradGrad

 Symmetry turned off by external request.
 Stoichiometry    C33H57CsN3O9(1+)
 Framework group  C1[X(C33H57CsN3O9)]
 Deg. of freedom   303
 Full point group                 C1      NOp   1
                          Input orientation:                          
 ---------------------------------------------------------------------
 Center     Atomic      Atomic             Coordinates (Angstroms)
 Number     Number       Type             X           Y           Z
 ---------------------------------------------------------------------
      1          7           0       -2.889788   12.493119   12.490797
      2          6           0       -3.740648   13.656679   12.138756
      3          6           0       -3.022470   14.959958   12.529648
      4          8           0       -2.610355   15.215993   13.656665
      5          6           0       -2.826812   12.065862   13.902839
      6          6           0       -5.157463   13.578220   12.781284
      7          6           0       -5.896912   12.312715   12.311495
      8          6           0       -5.980022   14.838317   12.449817
      9          8           0       -2.924854   15.799943   11.462542
     10          6           0       -1.437545   10.592328   11.713768
     11          6           0       -2.112727   11.963901   11.494087
     12          8           0       -1.995455   12.513588   10.374653
     13          6           0       -1.972186    9.559395   10.694853
     14          6           0       -3.496434    9.390604   10.848923
     15          6           0       -1.254343    8.207068   10.848366
     16          6           0       -2.346261   17.127066   11.710587
     17          8           0       -0.001149   10.757301   11.454093
     18          8           0       -0.419031   16.639821   10.352109
     19          8           0        2.362740   13.194080   10.343702
     20          8           0        2.296527   15.901439   13.633336
     21          8           0        0.379959   11.244667   13.661585
     22          7           0        2.841606   12.431941   12.457862
     23          7           0        0.035140   17.452768   12.452423
     24          6           0        2.272051   11.106664   12.108425
     25          6           0        1.463693   17.608094   12.081360
     26          6           0        0.790538   11.056845   12.520436
     27          6           0        2.243500   16.346434   12.491059
     28          6           0        3.178811   12.700377   13.870034
     29          6           0       -0.347992   17.631565   13.867138
     30          6           0        3.071934    9.928102   12.737781
     31          6           0        2.104067   18.889381   12.692269
     32          6           0        4.532630    9.940519   12.252453
     33          6           0        1.368089   20.150852   12.206238
     34          6           0        2.405298    8.578640   12.406963
     35          6           0        3.602574   18.971647   12.342851
     36          8           0        2.883856   15.802575   11.419368
     37          6           0        3.748820   14.643476   11.675885
     38          6           0        2.901918   13.369966   11.460501
     39          6           0       -0.823202   17.028662   11.472249
     40          6           0        4.906196   14.700232   10.651871
     41          6           0       -2.988348   18.102070   10.696286
     42          6           0        5.822235   13.470211   10.804681
     43          6           0       -2.380061   19.510726   10.842092
     44          6           0        5.711973   16.002849   10.798460
     45          6           0       -4.517332   18.148267   10.862754
     46          1           0        1.487396   17.676680   10.982703
     47          1           0        2.020223   18.822785   13.793602
     48          1           0        4.177180   18.125088   12.757086
     49          1           0        3.757727   18.994372   11.248341
     50          1           0        4.033410   19.897818   12.760649
     51          1           0        1.802351   21.049142   12.678639
     52          1           0        1.468552   20.266696   11.110888
     53          1           0        0.292095   20.129849   12.448110
     54          1           0        4.142754   14.731192   12.699505
     55          1           0        4.441821   14.670100    9.647872
     56          1           0        6.514710   16.035956   10.041151
     57          1           0        5.078420   16.893817   10.661499
     58          1           0        6.189929   16.066046   11.794292
     59          1           0        6.256660   13.417413   11.820669
     60          1           0        5.289225   12.524820   10.605909
     61          1           0        6.660433   13.536296   10.089917
     62          1           0        4.207933   12.383243   14.115882
     63          1           0        3.045833   13.769382   14.086970
     64          1           0        2.465228   12.146447   14.497815
     65          1           0        2.319722   11.035080   11.010851
     66          1           0        3.054503   10.050065   13.837502
     67          1           0        2.998720    7.753156   12.836321
     68          1           0        1.385671    8.501866   12.822696
     69          1           0        2.348354    8.417282   11.314505
     70          1           0        4.584697    9.782008   11.158994
     71          1           0        5.044845   10.890180   12.482183
     72          1           0        5.099782    9.126115   12.735926
     73          1           0       -1.557961   10.211736   12.738990
     74          1           0       -1.763944    9.970443    9.688672
     75          1           0       -0.164872    8.304499   10.715198
     76          1           0       -1.444360    7.765377   11.844866
     77          1           0       -1.627621    7.494730   10.091859
     78          1           0       -3.760610    9.045522   11.866225
     79          1           0       -4.043345   10.327567   10.647561
     80          1           0       -3.863121    8.631505   10.136797
     81          1           0       -1.831071   11.655952   14.122111
     82          1           0       -2.959872   12.957709   14.532443
     83          1           0       -3.608483   11.323754   14.144302
     84          1           0       -6.098919   14.963652   11.357756
     85          1           0       -6.989082   14.751570   12.888292
     86          1           0       -5.522301   15.756935   12.856037
     87          1           0       -5.341716   11.389623   12.548696
     88          1           0       -6.884764   12.246876   12.799748
     89          1           0       -6.063989   12.337998   11.218384
     90          1           0       -5.034626   13.538582   13.880301
     91          1           0       -3.837945   13.642328   11.042114
     92          1           0       -2.603387   17.424049   12.738399
     93          1           0       -2.742999   17.715925    9.688635
     94          1           0       -4.797814   18.530730   11.862339
     95          1           0       -4.957117   18.826966   10.111135
     96          1           0       -4.973747   17.154008   10.732195
     97          1           0       -1.296596   19.522052   10.634020
     98          1           0       -2.862819   20.202252   10.130302
     99          1           0       -2.542847   19.915030   11.859027
    100          1           0        0.501875   17.315712   14.489777
    101          1           0       -0.601580   18.682077   14.095713
    102          1           0       -1.193579   16.972283   14.107612
    103         55           0       -0.024778   14.121399    8.895322
 ---------------------------------------------------------------------
 Rotational constants (GHZ):      0.0619415      0.0616853      0.0394761
 General basis read from cards:  (5D, 7F)
 ======================================================================================================
                                       Pseudopotential Parameters
 ======================================================================================================
  Center     Atomic      Valence      Angular      Power
  Number     Number     Electrons     Momentum     of R      Exponent        Coefficient   SO-Coeffient
 ======================================================================================================
    1          7
                                   No pseudopotential on this center.
    2          6
                                   No pseudopotential on this center.
    3          6
                                   No pseudopotential on this center.
    4          8
                                   No pseudopotential on this center.
    5          6
                                   No pseudopotential on this center.
    6          6
                                   No pseudopotential on this center.
    7          6
                                   No pseudopotential on this center.
    8          6
                                   No pseudopotential on this center.
    9          8
                                   No pseudopotential on this center.
   10          6
                                   No pseudopotential on this center.
   11          6
                                   No pseudopotential on this center.
   12          8
                                   No pseudopotential on this center.
   13          6
                                   No pseudopotential on this center.
   14          6
                                   No pseudopotential on this center.
   15          6
                                   No pseudopotential on this center.
   16          6
                                   No pseudopotential on this center.
   17          8
                                   No pseudopotential on this center.
   18          8
                                   No pseudopotential on this center.
   19          8
                                   No pseudopotential on this center.
   20          8
                                   No pseudopotential on this center.
   21          8
                                   No pseudopotential on this center.
   22          7
                                   No pseudopotential on this center.
   23          7
                                   No pseudopotential on this center.
   24          6
                                   No pseudopotential on this center.
   25          6
                                   No pseudopotential on this center.
   26          6
                                   No pseudopotential on this center.
   27          6
                                   No pseudopotential on this center.
   28          6
                                   No pseudopotential on this center.
   29          6
                                   No pseudopotential on this center.
   30          6
                                   No pseudopotential on this center.
   31          6
                                   No pseudopotential on this center.
   32          6
                                   No pseudopotential on this center.
   33          6
                                   No pseudopotential on this center.
   34          6
                                   No pseudopotential on this center.
   35          6
                                   No pseudopotential on this center.
   36          8
                                   No pseudopotential on this center.
   37          6
                                   No pseudopotential on this center.
   38          6
                                   No pseudopotential on this center.
   39          6
                                   No pseudopotential on this center.
   40          6
                                   No pseudopotential on this center.
   41          6
                                   No pseudopotential on this center.
   42          6
                                   No pseudopotential on this center.
   43          6
                                   No pseudopotential on this center.
   44          6
                                   No pseudopotential on this center.
   45          6
                                   No pseudopotential on this center.
   46          1
                                   No pseudopotential on this center.
   47          1
                                   No pseudopotential on this center.
   48          1
                                   No pseudopotential on this center.
   49          1
                                   No pseudopotential on this center.
   50          1
                                   No pseudopotential on this center.
   51          1
                                   No pseudopotential on this center.
   52          1
                                   No pseudopotential on this center.
   53          1
                                   No pseudopotential on this center.
   54          1
                                   No pseudopotential on this center.
   55          1
                                   No pseudopotential on this center.
   56          1
                                   No pseudopotential on this center.
   57          1
                                   No pseudopotential on this center.
   58          1
                                   No pseudopotential on this center.
   59          1
                                   No pseudopotential on this center.
   60          1
                                   No pseudopotential on this center.
   61          1
                                   No pseudopotential on this center.
   62          1
                                   No pseudopotential on this center.
   63          1
                                   No pseudopotential on this center.
   64          1
                                   No pseudopotential on this center.
   65          1
                                   No pseudopotential on this center.
   66          1
                                   No pseudopotential on this center.
   67          1
                                   No pseudopotential on this center.
   68          1
                                   No pseudopotential on this center.
   69          1
                                   No pseudopotential on this center.
   70          1
                                   No pseudopotential on this center.
   71          1
                                   No pseudopotential on this center.
   72          1
                                   No pseudopotential on this center.
   73          1
                                   No pseudopotential on this center.
   74          1
                                   No pseudopotential on this center.
   75          1
                                   No pseudopotential on this center.
   76          1
                                   No pseudopotential on this center.
   77          1
                                   No pseudopotential on this center.
   78          1
                                   No pseudopotential on this center.
   79          1
                                   No pseudopotential on this center.
   80          1
                                   No pseudopotential on this center.
   81          1
                                   No pseudopotential on this center.
   82          1
                                   No pseudopotential on this center.
   83          1
                                   No pseudopotential on this center.
   84          1
                                   No pseudopotential on this center.
   85          1
                                   No pseudopotential on this center.
   86          1
                                   No pseudopotential on this center.
   87          1
                                   No pseudopotential on this center.
   88          1
                                   No pseudopotential on this center.
   89          1
                                   No pseudopotential on this center.
   90          1
                                   No pseudopotential on this center.
   91          1
                                   No pseudopotential on this center.
   92          1
                                   No pseudopotential on this center.
   93          1
                                   No pseudopotential on this center.
   94          1
                                   No pseudopotential on this center.
   95          1
                                   No pseudopotential on this center.
   96          1
                                   No pseudopotential on this center.
   97          1
                                   No pseudopotential on this center.
   98          1
                                   No pseudopotential on this center.
   99          1
                                   No pseudopotential on this center.
  100          1
                                   No pseudopotential on this center.
  101          1
                                   No pseudopotential on this center.
  102          1
                                   No pseudopotential on this center.
  103         55            9
                                      F and up 
                                                     2        3.1232690      -28.88430900    0.00000000
                                      S - F
                                                     2        4.0797500       84.54773000    0.00000000
                                                     2        2.4174060       16.65417300    0.00000000
                                                     2        3.1232690       28.88430900    0.00000000
                                      P - F
                                                     2        5.5140800      157.04905900    0.00000000
                                                     2        2.1603160       26.42330700    0.00000000
                                                     2        3.1232690       28.88430900    0.00000000
                                      D - F
                                                     2        1.8074100       13.17275300    0.00000000
                                                     2        0.8581820        3.34283300    0.00000000
                                                     2        3.1232690       28.88430900    0.00000000
 ======================================================================================================
   773 basis functions,  1531 primitive gaussians,   821 cartesian basis functions
   178 alpha electrons      178 beta electrons
       nuclear repulsion energy      6846.5915219115 Hartrees.
 NAtoms=  103 NActive=  103 NUniq=  103 SFac= 1.00D+00 NAtFMM=   60 NAOKFM=T Big=T
 Integral buffers will be    131072 words long.
 Raffenetti 2 integral format.
 Two-electron integral symmetry is turned off.
 Force inversion solution in PCM.
 ------------------------------------------------------------------------------
 Polarizable Continuum Model (PCM)
 =================================
 Model                : PCM (using non-symmetric T matrix).
 Atomic radii         : UFF (Universal Force Field).
 Polarization charges : Total charges.
 Charge compensation  : None.
 Solution method      : Matrix inversion.
 Cavity type          : Scaled VdW (van der Waals Surface) (Alpha=1.100).
 Cavity algorithm     : GePol (No added spheres)
                        Default sphere list used, NSphG=  103.
                        Lebedev-Laikov grids with approx.  5.0 points / Ang**2.
                        Smoothing algorithm: Karplus/York (Gamma=1.0000).
                        Polarization charges: spherical gaussians, with
                                              point-specific exponents (IZeta= 3).
                        Self-potential: point-specific (ISelfS= 7).
                        Self-field    : sphere-specific E.n sum rule (ISelfD= 2).
 1st derivatives      : Analytical E(r).r(x)/FMM algorithm (CHGder, D1EAlg=3).
                        Cavity 1st derivative terms included.
 2nd derivatives      : Analytical E(r).r(xy)/FMM algorithm (CHGder, D2EAlg=3).
                        Cavity 2nd derivative terms included.
 Solvent              : n-Pentadecane, Eps=   2.033300 Eps(inf)=   2.049192
 ------------------------------------------------------------------------------
 One-electron integrals computed using PRISM.
   1 Symmetry operations used in ECPInt.
 ECPInt:  NShTT=   46665 NPrTT=  274420 LenC2=   34471 LenP2D=  102842.
 LDataN:  DoStor=T MaxTD1= 5 Len=  102
 NBasis=   773 RedAO= T EigKep=  2.19D-03  NBF=   773
 NBsUse=   773 1.00D-06 EigRej= -1.00D+00 NBFU=   773
 Defaulting to unpruned grid for atomic number  55.
 Initial guess from the checkpoint file:  "nP_EB11Cs_above.chk"
 B after Tr=     0.000000    0.000000    0.000000
         Rot=    1.000000    0.000000    0.000000    0.000000 Ang=   0.00 deg.
 Requested convergence on RMS density matrix=1.00D-08 within 128 cycles.
 Requested convergence on MAX density matrix=1.00D-06.
 Requested convergence on             energy=1.00D-06.
 No special actions if energy rises.
 Defaulting to unpruned grid for atomic number  55.
 Inv3:  Mode=1 IEnd=   105352428.
 Iteration    1 A*A^-1 deviation from unit magnitude is 3.55D-15 for   4169.
 Iteration    1 A*A^-1 deviation from orthogonality  is 3.33D-15 for   4951   2187.
 Iteration    1 A^-1*A deviation from unit magnitude is 3.00D-15 for   5450.
 Iteration    1 A^-1*A deviation from orthogonality  is 8.35D-15 for   5580   5574.
 Error on total polarization charges =  0.00828
 SCF Done:  E(RB-P86) =  -2153.30063173     A.U. after    1 cycles
            NFock=  1  Conv=0.38D-08     -V/T= 2.0146
 QCSCF skips out because SCF is already converged.
 Range of M.O.s used for correlation:     1   773
 NBasis=   773 NAE=   178 NBE=   178 NFC=     0 NFV=     0
 NROrb=    773 NOA=   178 NOB=   178 NVA=   595 NVB=   595
   1 Symmetry operations used in ECPInt.
 ECPInt:  NShTT=   46665 NPrTT=  274420 LenC2=   34471 LenP2D=  102842.
[...]
 6,0.00000037,0.00000148,-0.00000033,-0.00000621,-0.00000202,0.00000308
 ,-0.00000508,0.00000042,-0.00000796,0.00000420,0.00000536,0.00001307,0
 .00003073,-0.00001579,0.00001386,-0.00001782,0.00000743,-0.00000312,0.
 00000098,-0.00000045,0.00000111,0.00000093,0.00000015,-0.00000408,0.00
 000187,-0.00000114,-0.00000429,-0.00000550,0.00000437,0.00000182,-0.00
 000114,-0.00000030,0.00000043,0.00000071,0.00000213,-0.00000141,-0.000
 00266,-0.00000160,-0.00000499,0.00000115,0.00000099,-0.00000333,-0.000
 00615,-0.00000226,0.00000249,-0.00000035,0.00000204,-0.00000405,-0.000
 00213,-0.00000217,-0.00000069,-0.00000081,-0.00000280,-0.00000163,0.00
 001185,0.00000213,-0.00000105,-0.00000426,-0.00000051,-0.00001246,0.00
 000011,-0.00001166,0.00000104,0.00001093,0.00000505,0.00001127,-0.0000
 1261,-0.00000688,-0.00004254,-0.00008719,0.00008862,0.00001576,0.00003
 713,0.00000962,0.00000006,0.00000113,0.00001410,0.00003405,-0.00000311
 ,0.00000656,-0.00003264,0.00003112,0.00000298,-0.00001235,-0.00000495,
 0.00000134,0.00003325,0.00003120,0.00000285,-0.00000314,0.00000354,0.0
 0000780,-0.00001233,-0.00001853,0.00000451,0.00010927,0.00019174,0.000
 06179,0.00103140,0.00025543,0.00030742,-0.00004139,0.00007937,-0.00014
 094,0.00002142,-0.00001882,-0.00000840,-0.00001385,-0.00001151,-0.0000
 1857,-0.00004019,-0.00001468,-0.00002361,-0.00000733,-0.00002334,-0.00
 001559,-0.00001499,-0.00001070,-0.00003253,0.00000094,-0.00007961,-0.0
 0003304,0.00834810,0.00665945,-0.00289500,-0.02239169,-0.01484408,0.00
 501662,0.13298998,0.15077201,-0.00002793,0.00012988,0.00006014,0.00000
 963,-0.00005956,0.00026931,-0.00095816,-0.00064205,-0.00207475,0.00161
 793,0.00127559,0.00023197,-0.00001447,0.00000322,0.00003876,-0.0001189
 3,0.00002550,0.00007280,0.00003982,-0.00002493,-0.00003401,0.00001236,
 0.00000175,-0.00002582,-0.00018244,-0.00024699,0.00054177,0.00005123,-
 0.00002769,0.00001472,0.00009648,-0.00004469,-0.00020935,-0.00005401,0
 .00000783,0.00011688,-0.00001629,0.00000081,-0.00001502,0.00000198,-0.
 00000617,0.00000539,0.00000708,0.00000092,0.00001051,-0.00034873,-0.00
 041998,-0.00154840,-0.00009092,0.00000804,-0.00004758,-0.00002630,-0.0
 0075672,-0.00099079,-0.00002724,-0.00002246,-0.00001282,-0.00001650,-0
 .00004065,0.00046990,-0.00002874,-0.00000286,-0.00004037,-0.00001774,-
 0.00002596,-0.00000162,0.02869400,0.01546312,-0.01463566,0.00000719,0.
 00001168,0.00000179,-0.00182604,0.00080704,-0.00504546,0.00006738,0.00
 000895,0.00007902,-0.00032730,0.00047863,-0.00053866,0.00000021,-0.000
 00185,0.00000768,0.03625472,0.02814329,-0.05533627,-0.00000322,-0.0000
 0542,0.00000543,-0.00065756,-0.00061546,-0.00069284,0.00000016,0.00000
 337,-0.00000197,0.00002441,0.00009091,0.00010123,0.00000225,0.00000063
 ,-0.00000036,0.00014299,0.00013020,0.00031241,0.00011172,-0.00018678,0
 .00011532,-0.00006225,0.00003744,0.00000156,0.00004764,0.00002998,0.00
 000468,0.00272610,0.00155330,0.00213074,-0.00000182,-0.00001218,0.0000
 0945,-0.00018383,0.00036601,0.00013043,0.00000576,0.00000769,-0.000006
 53,0.00011778,0.00003809,-0.00001927,-0.00000329,0.00000415,-0.0000026
 2,-0.00003383,-0.00003883,0.00006866,0.00150337,0.00007813,-0.00038932
 ,0.00010232,0.00008467,0.00061648,-0.00001365,0.00000332,-0.00001093,-
 0.00013997,-0.00002561,0.00008064,0.00005637,0.00001038,0.00001375,-0.
 00001834,0.00004221,-0.00000049,-0.00000173,-0.00007832,0.00005309,-0.
 00003344,0.00001191,-0.00007616,0.00000907,-0.00001576,0.00000574,-0.0
 0000024,0.00000480,0.00000116,0.00000379,-0.00000049,-0.00000075,-0.00
 000694,-0.00000772,-0.00000127,0.00000239,-0.00000296,0.00000271,0.000
 00004,-0.00000087,0.00000100,-0.00000113,-0.00000155,0.00000046,0.0000
 0390,-0.00000339,-0.00000098,0.00000077,-0.00000118,-0.00000242,-0.000
 00670,0.00000013,0.00000474,0.00000219,0.00000854,0.00000627,0.0000004
 2,0.00000011,-0.00000209,0.00000011,0.00000094,-0.00000223,-0.00000192
 ,-0.00000021,-0.00000005,-0.00000101,-0.00000157,0.00000300,0.00000116
 ,-0.00000083,-0.00000229,0.00000033,0.00000014,-0.00000086,-0.00000235
 ,-0.00000133,-0.00000010,-0.00000145,-0.00000020,0.00000098,-0.0000032
 6,0.00000196,-0.00000140,0.00000220,-0.00000129,-0.00000066,-0.0000033
 9,0.00000056,0.00000006,0.00000034,0.00000085,-0.00000212,-0.00000190,
 0.00000563,0.00000006,-0.00000031,-0.00000127,-0.00000076,-0.00000754,
 0.00000166,-0.00000641,-0.00000079,0.00000520,0.00000202,0.00000566,0.
 00002119,0.00000464,0.00000401,-0.00006659,0.00007579,0.00000537,0.000
 02039,-0.00000532,-0.00000693,-0.00000386,-0.00000385,0.00002664,0.000
 00902,0.00000382,-0.00002668,0.00002484,0.00002423,-0.00000828,0.00000
 619,0.00000255,0.00002221,0.00001908,0.00000447,-0.00000153,0.00000134
 ,0.00000154,-0.00000744,-0.00000815,-0.00000694,0.00005811,0.00010329,
 0.00000991,-0.00265189,0.00082680,-0.00132058,0.00011955,-0.00010281,0
 .00014752,-0.00000740,0.00000858,-0.00001725,0.00003995,-0.00002225,0.
 00000069,-0.00001980,0.00000564,-0.00001414,-0.00003318,-0.00004446,0.
 00000234,-0.00003480,-0.00003490,0.00002274,-0.00002916,0.00002801,0.0
 0001737,-0.01277537,-0.01197028,0.00511700,-0.00500405,-0.00174818,0.0
 0163667,-0.04619887,-0.03272383,0.07047908,0.00137334,-0.00027268,-0.0
 0224830,-0.00016435,0.00031494,0.00017252,0.00027607,-0.00016266,0.001
 50452,-0.00048757,-0.00024786,-0.00090250,0.00009404,-0.00029890,0.000
 53066,-0.00023520,-0.00007666,0.00005410,0.00006033,-0.00004161,0.0000
 1270,0.00009705,0.00006988,0.00000486,0.00020370,-0.00041963,-0.000931
 31,0.00112696,0.00025113,-0.00038453,-0.00174278,-0.00283091,0.0065078
 0,-0.00464638,-0.00175251,0.00060907,-0.00029803,-0.00005625,-0.000091
 88,0.00002743,-0.00009075,-0.00001224,0.00018481,0.00004064,0.00006835
 ,0.00035370,0.00082353,0.00018357,-0.00187819,-0.00024492,-0.00058299,
 -0.00088020,0.00086348,-0.00003476,-0.00506717,0.00315830,-0.00038730,
 -0.00048219,0.00020902,0.00108772,-0.00087194,-0.00002296,-0.00006316,
 0.00021872,-0.00225438,0.00305949,-0.00087664,-0.00022143,-0.00070548,
 0.00048735,0.00078331,0.00014070,0.00055480,-0.00002136,-0.00029942,0.
 00190101,0.00023325,0.00057922,0.00143179,-0.00149480,-0.00231735,-0.0
 0028264,-0.00037353,-0.00053415,-0.00012700,-0.00000848,-0.00000805,-0
 .00027349,0.00000611,-0.00004585,-0.00018649,-0.00001972,-0.00001689,-
 0.00000335,0.00000905,-0.00000666,0.00008041,0.00003944,0.00001390,0.0
 0017842,-0.00003029,0.00005068,0.00004411,-0.00003948,-0.00005004,-0.0
 0050854,0.00136294,0.00138463,0.00021082,-0.00007936,0.00020564,-0.004
 19425,0.00109205,-0.00883620,0.00040261,0.00098591,0.00206237,-0.00032
 221,0.00013077,-0.00016869,-0.00013569,0.00004585,0.00025802,-0.000017
 33,0.00006227,0.00002907,0.00012765,0.00002061,-0.00002567,0.00009648,
 -0.00013528,-0.00003630,-0.00001068,0.00004253,-0.00003342,0.00009605,
 -0.00014792,0.00001627,0.00001445,0.00001334,0.00002321,-0.00006649,0.
 00001318,-0.00006102,-0.00000110,-0.00004781,0.00005003,-0.00003118,0.
 00004106,0.00002488,-0.00002683,0.00003266,-0.00001109,0.00001861,-0.0
 0001223,0.00000468,-0.00005399,0.00002755,0.00003133,0.00022099,0.0002
 5951,0.00013035,-0.00023091,-0.00010585,0.00025451,0.00005396,0.000066
 43,-0.00002573,-0.00003792,-0.00001893,-0.00002877,0.00005472,0.000038
 57,0.00007270,0.00006777,-0.00001836,0.00007926,-0.00006132,0.00010488
 ,-0.00000771,0.00005197,-0.00000119,-0.00002889,0.00013915,0.00004063,
 0.00025881,0.00003980,0.00001760,0.00003243,0.00008652,0.00002965,0.00
 025641,-0.00008491,0.00035963,-0.00009881,0.00004557,-0.00002548,0.000
 04924,-0.00003158,-0.00008774,-0.00000420,-0.00006207,-0.00001849,0.00
 004197,0.00001023,0.00001577,-0.00002233,-0.00000178,0.00004477,0.0000
 2427,-0.00012164,-0.00000110,-0.00004038,0.00001227,-0.00006677,0.0000
 3055,-0.00024224,0.00029484,-0.00004131,0.00009651,-0.00017736,-0.0001
 0465,-0.00007399,0.00002954,0.00000993,-0.00001778,0.00003524,-0.00002
 053,-0.00003681,0.00006940,0.00000045,-0.00000493,0.00002294,-0.000036
 65,-0.00014890,0.00004238,-0.00000772,-0.00001438,0.00003185,0.0000182
 8,0.00010347,0.00002884,-0.00010540,-0.00000124,0.00000534,-0.00012450
 ,0.00005047,0.00011193,-0.00022919,-0.00005105,0.00000070,-0.00002607,
 0.00007185,-0.00002242,-0.00002099,-0.00003335,0.00000062,0.00001689,-
 0.00005828,-0.00002403,0.00001746,0.00007373,0.00001340,-0.00002253,-0
 .00004030,-0.00000444,-0.00003156,0.00005707,0.00002292,-0.00007211,-0
 .00043606,-0.00005686,0.00010344,-0.00004839,-0.00011409,-0.00008322,-
 0.00000674,0.00013524,-0.00014350,0.00001555,-0.00002175,-0.00004798,-
 0.00000049,-0.00000615,0.00002279,-0.00009048,-0.00003043,0.00001788,-
 0.00004582,-0.00000703,0.00001671,-0.00001118,-0.00003467,0.00000703,-
 0.00000818,-0.00005080,-0.00003615,0.00005814,-0.00005794,-0.00011802,
 0.00000975,-0.00000043,-0.00002946,0.00005020,0.00007943,0.00006989,0.
 01484424,0.00156129,-0.00092418,-0.00220122,-0.00041029,0.00077124,-0.
 00025937,0.00069540,0.00207872,-0.00160430,-0.00019487,-0.00074682,0.0
 0062496,0.00013582,-0.00031231,0.00031044,-0.00002265,-0.00022064,0.00
 001520,-0.00004757,0.00003459,0.00001622,0.00007571,0.00011299,-0.0000
 6202,-0.00095969,-0.00180130,0.00122019,-0.00039930,0.00001656,-0.0000
 0923,-0.00230572,-0.00171501,0.00641631,-0.00301098,-0.00289407,0.0001
 3549,-0.00014743,-0.00021201,0.00026322,-0.00008191,0.00006966,-0.0000
 3372,0.00007919,-0.00000780,-0.00000305,0.00018823,0.00082207,0.000344
 91,-0.00065973,0.00016103,-0.00107703,-0.00050074,-0.00671189,-0.00085
 821,0.00177474,-0.00193419,0.00064136,0.00025858,-0.00073594,0.0005174
 7,0.00000488,-0.00032775,-0.00113584,-0.00042390,0.00028482,-0.0009098
 6,0.00164438,0.00140564,0.00302714,0.00005960,0.00009069,0.00027093,-0
 .00072262,0.00002176,-0.00002798,0.00116829,0.00046108,0.00213891,-0.0
 0051663,0.00095481,-0.00058729,0.00009170,0.00007298,0.00031627,0.0004
 1873,-0.00007625,-0.00063056,0.00006797,-0.00019630,0.00004370,0.00003
 500,-0.00028336,-0.00005232,0.00000881,0.00009853,-0.00000783,0.000046
 81,0.00001693,-0.00000084,-0.00003434,0.00003810,0.00003529,-0.0000425
 0,0.00016966,0.00002521,0.00079824,-0.00106572,0.00007200,-0.00080900,
 0.00094550,-0.00032352,0.00164320,0.00043840,0.00248919,0.00151867,-0.
 00412672,-0.00878175,0.00005609,-0.00019839,-0.00019685,-0.00003939,-0
 .00036503,-0.00002633,0.00006600,0.00011173,-0.00000059,0.00003552,-0.
 00003923,0.00002620,-0.00009450,0.00009203,0.00006069,0.00007454,0.000
 18922,-0.00006364,-0.00026257,-0.00038786,-0.00009327,0.00000993,0.000
 07379,0.00007093,0.00001422,-0.00004326,0.00001623,-0.00001980,-0.0000
 2355,-0.00000134,0.00008712,0.00003906,0.00000707,0.00004215,0.0000671
 5,0.00002892,-0.00003615,-0.00004129,0.00002487,0.00002942,-0.00009536
 ,-0.00002810,-0.00003370,-0.00027084,0.00003023,0.00000015,0.00014343,
 0.00001093,-0.00002088,-0.00004268,-0.00001257,-0.00000588,-0.00010126
 ,-0.00000293,0.00000066,-0.00001864,0.00001519,0.00001261,-0.00002804,
 0.00000106,0.00001159,-0.00011248,-0.00001195,0.00000351,-0.00003391,0
 .00000717,-0.00006892,-0.00001212,-0.00011518,-0.00006963,0.00009356,-
 0.00010194,0.00004522,0.00001320,-0.00000635,0.00025514,-0.00020180,0.
 00005318,-0.00002873,0.00003592,-0.00005528,-0.00004137,0.00003971,-0.
 00002730,-0.00001096,-0.00004547,0.00004477,0.00003688,-0.00004390,-0.
 00004758,0.00002378,-0.00001463,-0.00002060,0.00000652,-0.00003920,-0.
 00001037,-0.00005335,0.00002961,-0.00000586,-0.00000473,0.00019433,-0.
 00013302,-0.00009757,-0.00020038,-0.00023606,0.00003966,-0.00006253,0.
 00002558,0.00000342,0.00005011,-0.00007226,-0.00001641,0.00004613,0.00
 002751,0.00006034,0.00003986,-0.00006945,-0.00005734,-0.00001870,0.000
 01144,0.00003758,0.00003016,0.00002109,-0.00005407,0.00002707,0.000023
 19,0.00002334,0.00009239,-0.00021338,0.00002856,0.00008050,-0.00017245
 ,0.00002180,0.00002043,0.00004647,0.00002382,-0.00007012,0.00001784,-0
 .00000030,-0.00007263,-0.00005969,-0.00003370,-0.00008381,0.00005036,0
 .00002948,-0.00003597,-0.00002411,-0.00002464,0.00001864,-0.00001222,0
 .00001387,0.00002138,-0.00001655,-0.00015349,0.00015503,0.00005294,-0.
 00041451,-0.00000370,0.00010494,0.00024146,-0.00009178,0.00020978,-0.0
 0005810,0.00001745,0.00005232,-0.00009664,0.00000806,-0.00001476,-0.00
 001485,-0.00003813,-0.00002224,-0.00009280,-0.00012027,-0.00000384,-0.
 00003389,0.00002641,-0.00002397,-0.00002240,0.00003578,0.00005492,-0.0
 0004038,0.00003333,0.00021538,-0.00009849,0.00011324,0.00028874,-0.000
 00145,0.00007938,0.00008755,-0.00021815,0.01616537,-0.00091908,0.00011
 478,0.00079945,0.00032165,-0.00018639,0.00024963,0.00042752,0.00025720
 ,-0.00039127,-0.00028898,0.00003636,0.00009205,-0.00000941,0.00016488,
 -0.00032183,0.00023319,0.00003425,-0.00013957,-0.00004761,0.00002770,0
 .00012683,-0.00005367,-0.00005552,0.00012246,-0.00047867,0.00018674,0.
 00020502,0.00043642,0.00033209,0.00008865,0.00187858,0.00217129,-0.003
 95144,0.00341532,0.00223600,-0.00173237,0.00012319,0.00005468,0.000416
 66,0.00002264,-0.00006049,-0.00012512,-0.00009287,-0.00003320,-0.00016
 200,0.00006316,-0.00047203,0.00010489,-0.00001428,-0.00039571,0.000080
 18,0.00032202,-0.00433375,-0.00223881,-0.00371854,0.00225969,-0.002490
 65,0.00013337,0.00020424,0.00016864,0.00009091,-0.00023500,0.00013744,
 0.00037486,-0.00083978,0.00075103,0.00054509,0.00074492,0.00075011,-0.
 00002043,0.00036964,0.00025270,-0.00028665,-0.00018853,0.00025375,-0.0
 0049916,0.00021430,-0.00052659,0.00000376,-0.00056560,-0.00065894,-0.0
 0013702,-0.00009799,-0.00032362,0.00013639,-0.00006706,-0.00032001,-0.
 00015073,0.00019219,-0.00014401,-0.00010047,-0.00022260,-0.00013677,0.
 00000058,-0.00006214,0.00013592,0.00005882,0.00003175,0.00013809,0.000
 08085,-0.00001806,0.00012403,-0.00002008,0.00007693,0.00012530,0.00039
 107,0.00028514,0.00004658,-0.00052850,0.00022722,0.00009443,-0.0026381
 2,0.00034943,-0.00396389,0.00083957,-0.00263543,-0.00357127,-0.0001036
 5,0.00008367,0.00043054,-0.00001173,-0.00013512,0.00040078,0.00003892,
 0.00004733,-0.00013422,-0.00006302,0.00000387,-0.00011491,0.00008000,-
 0.00007317,-0.00017150,0.00002276,0.00010034,-0.00015425,-0.00013097,-
 0.00015342,0.00002182,0.00000682,0.00003960,0.00000171,-0.00004795,-0.
 00000586,-0.00003448,0.00000934,-0.00001501,-0.00003631,0.00005332,0.0
 0004797,-0.00000666,0.00000476,0.00007209,-0.00001128,0.00000148,-0.00
 000496,-0.00004653,0.00001601,-0.00005273,-0.00000858,0.00011723,0.000
 06268,0.00004916,-0.00007292,-0.00003764,0.00001024,0.00011131,0.00004
 438,-0.00001087,-0.00004048,-0.00001075,0.00007740,-0.00002628,0.00001
 431,-0.00001883,-0.00002043,-0.00000581,-0.00002026,-0.00005807,0.0000
 3971,0.00007387,0.00011002,-0.00000434,-0.00001026,0.00010142,-0.00001
 166,0.00011673,-0.00008198,0.00002795,0.00000086,-0.00005662,0.0000406
 4,0.00003989,-0.00007004,0.00019386,0.00001440,0.00002778,-0.00002204,
 0.00000160,0.00001608,-0.00007119,-0.00000490,0.00001070,0.00004268,-0
 .00003567,-0.00001883,0.00000051,-0.00003184,-0.00000413,-0.00000106,-
 0.00003984,-0.00006249,0.00001151,-0.00000822,0.00006001,-0.00004192,-
 0.00000995,0.00000086,-0.00013246,0.00005148,-0.00000408,0.00007672,0.
 00001354,0.00001283,0.00004442,0.00007215,0.00002384,0.00002018,-0.000
 01826,-0.00001755,-0.00011657,-0.00001284,0.00000475,0.00002342,-0.000
 01943,0.00006484,0.00003034,0.00007012,-0.00005828,-0.00009301,-0.0000
 1088,0.00006973,0.00006138,-0.00000026,0.00006300,0.00002800,0.0000378
 9,-0.00006954,-0.00007301,0.00012440,0.00000996,0.00001213,-0.00003627
 ,-0.00006693,0.00002231,-0.00000409,0.00002563,-0.00003449,-0.00003478
 ,0.00003805,0.00003556,-0.00001653,-0.00006587,-0.00002857,-0.00000731
 ,0.00000274,0.00000491,-0.00003566,-0.00003010,-0.00001643,0.00000225,
 0.00019309,-0.00003303,0.00000767,-0.00011246,0.00006540,0.00004847,0.
 00006822,-0.00003885,0.00000891,-0.00000028,-0.00002896,-0.00001780,-0
 .00009088,0.00007137,-0.00001222,0.00003016,-0.00003064,0.00006915,-0.
 00000147,-0.00006462,0.00006686,-0.00005155,0.00009393,-0.00001010,0.0
 0001687,-0.00001918,-0.00002545,-0.00000676,-0.00007256,0.00003619,-0.
 00003409,0.00009147,0.00012187,0.00001988,-0.00008379,0.00000646,0.000
 15235,-0.00014392,0.01512916\\-0.00000021,0.00000016,-0.00000084,-0.00
 000064,-0.00000069,-0.00000260,-0.00000055,0.00000043,-0.00000230,-0.0
 0000136,0.00000056,-0.00000296,-0.00000131,0.00000069,-0.00000094,0.,0
 .00000018,-0.00000371,-0.00000019,-0.00000099,-0.00000367,-0.00000084,
 -0.00000072,-0.00000509,0.,-0.00000093,-0.00000386,0.00000044,-0.00000
 008,0.00000113,0.00000054,-0.00000072,-0.00000037,0.00000151,-0.000001
 57,-0.00000054,0.00000176,-0.00000122,0.00000132,0.00000147,-0.0000011
 0,0.00000028,0.00000175,-0.00000076,0.00000274,0.00000038,-0.00000033,
 -0.00000348,0.00000131,-0.00000076,0.00000231,0.00000104,-0.00000097,-
 0.00000161,0.00000210,-0.00000026,0.00000279,-0.00000146,0.00000143,0.
 00000109,-0.00000118,0.00000109,0.00000226,-0.00000029,-0.00000023,0.0
 0000341,-0.00000123,0.00000009,-0.00000203,0.00000005,0.00000218,0.000
 00368,-0.00000012,0.00000077,-0.00000112,0.00000018,0.00000023,0.00000
 198,-0.00000083,0.00000029,0.,-0.00000119,0.00000187,0.00000382,-0.000
 00199,0.00000119,-0.00000248,0.00000006,-0.00000018,0.00000514,-0.0000
 0125,0.00000067,-0.00000134,0.00000040,0.00000107,0.00000608,-0.000001
 08,0.00000055,-0.00000280,0.00000066,0.00000099,0.00000551,-0.00000111
 ,0.00000088,-0.00000016,-0.00000010,-0.00000012,0.00000127,0.00000120,
 0.00000064,0.00000243,-0.00000020,-0.00000006,0.00000209,-0.00000025,-
 0.00000027,-0.00000302,0.00000046,-0.00000020,0.00000359,0.00000053,-0
 .00000162,-0.00000500,0.00000093,0.00000016,0.00000512,0.00000023,-0.0
 0000113,-0.00000531,0.00000080,0.00000019,0.00000333,0.00000006,-0.000
 00151,-0.00000618,0.00000014,-0.00000049,-0.00000094,-0.00000214,0.000
 00150,-0.00000135,-0.00000120,0.00000111,0.00000073,-0.00000009,0.0000
 0006,-0.00000013,-0.00000138,0.00000103,-0.00000048,-0.00000153,0.0000
 0067,-0.00000291,-0.00000017,-0.00000034,-0.00000270,-0.00000123,0.000
 00027,-0.00000350,-0.00000067,0.00000099,0.00000275,0.00000182,-0.0000
 0079,0.00000313,0.00000125,-0.00000028,0.00000388,0.00000063,-0.000000
 13,0.00000229,-0.00000011,0.00000080,0.00000364,0.00000019,0.00000085,
 0.00000533,0.00000115,-0.00000019,0.00000524,0.00000154,-0.00000025,0.
 00000559,-0.00000134,0.00000190,0.00000442,-0.00000165,0.00000157,0.00
 000254,-0.00000175,0.00000196,0.00000304,0.00000127,-0.00000041,0.0000
 0386,-0.00000092,0.00000173,0.00000496,0.00000022,0.00000091,0.0000063
 8,0.00000010,0.00000061,0.00000462,0.00000134,-0.00000009,0.00000548,0
 .00000122,0.00000012,0.00000638,0.00000006,0.00000104,0.00000601,0.000
 00013,0.00000115,0.00000721,0.00000004,0.00000011,0.00000115,0.0000024
 1,-0.00000167,0.00000129,0.00000184,-0.00000079,0.00000353,0.00000100,
 -0.00000025,0.00000284,0.00000242,-0.00000141,0.00000289,0.00000080,-0
 .00000061,0.00000023,0.00000162,-0.00000151,-0.00000080,0.00000219,-0.
 00000175,0.00000043,-0.00000130,0.00000134,0.00000021,-0.00000185,0.00
 000115,-0.00000152,-0.00000138,0.00000089,-0.00000107,0.00000036,-0.00
 000119,-0.00000531,-0.00000067,-0.00000038,-0.00000592,-0.00000088,-0.
 00000016,-0.00000542,-0.00000005,-0.00000035,-0.00000248,-0.00000034,-
 0.00000035,-0.00000416,0.00000082,-0.00000131,-0.00000367,-0.00000145,
 0.00000038,-0.00000359,0.00000088,-0.00000114,-0.00000271,-0.00000123,
 0.00000022,-0.00000399,0.00000122,-0.00000177,-0.00000430,-0.00000054,
 -0.00000070,-0.00000646,0.00000079,-0.00000188,-0.00000684,0.00000052,
 -0.00000137,-0.00000578,0.00000036,-0.00000105,-0.00000435,0.00000063,
 -0.00000152,-0.00000604,-0.00000079,-0.00000035,-0.00000563,-0.0000024
 2,0.00000167,-0.00000159,-0.00000230,0.00000130,-0.00000328,-0.0000021
 1,0.00000112,-0.00000266,0.00000212,-0.00000183,-0.00000044\\\@


 LIFE IS SO UNCERTAIN - EAT DESSERT FIRST.
 Job cpu time:       1 days 18 hours 19 minutes 12.4 seconds.
 File lengths (MBytes):  RWF=   7410 Int=      0 D2E=      0 Chk=     71 Scr=      1
 Normal termination of Gaussian 09 at Mon Oct 29 14:28:16 2018.
