 Entering Gaussian System, Link 0=g09
 Input=/net/work/kozuch/EnniatinDef2TZVP/nP_EB11Ca/Freq/nP_EB11Ca.com
 Output=/net/work/kozuch/EnniatinDef2TZVP/nP_EB11Ca/Freq/nP_EB11Ca.log
 Initial command:
 /afs/math/software/gaussian/g09.D01/opt/@sys/l1.exe "/scratch/kozuch_g09.3sNKMAi/Gau-32022.inp" -scrdir="/scratch/kozuch_g09.3sNKMAi/"
 Entering Link 1 = /afs/math/software/gaussian/g09.D01/opt/@sys/l1.exe PID=     32023.
  
 Copyright (c) 1988,1990,1992,1993,1995,1998,2003,2009,2013,
            Gaussian, Inc.  All Rights Reserved.
  
 This is part of the Gaussian(R) 09 program.  It is based on
 the Gaussian(R) 03 system (copyright 2003, Gaussian, Inc.),
 the Gaussian(R) 98 system (copyright 1998, Gaussian, Inc.),
 the Gaussian(R) 94 system (copyright 1995, Gaussian, Inc.),
 the Gaussian 92(TM) system (copyright 1992, Gaussian, Inc.),
 the Gaussian 90(TM) system (copyright 1990, Gaussian, Inc.),
 the Gaussian 88(TM) system (copyright 1988, Gaussian, Inc.),
 the Gaussian 86(TM) system (copyright 1986, Carnegie Mellon
 University), and the Gaussian 82(TM) system (copyright 1983,
 Carnegie Mellon University). Gaussian is a federally registered
 trademark of Gaussian, Inc.
  
 This software contains proprietary and confidential information,
 including trade secrets, belonging to Gaussian, Inc.
  
 This software is provided under written license and may be
 used, copied, transmitted, or stored only in accord with that
 written license.
  
 The following legend is applicable only to US Government
 contracts under FAR:
  
                    RESTRICTED RIGHTS LEGEND
  
 Use, reproduction and disclosure by the US Government is
 subject to restrictions as set forth in subparagraphs (a)
 and (c) of the Commercial Computer Software - Restricted
 Rights clause in FAR 52.227-19.
  
 Gaussian, Inc.
 340 Quinnipiac St., Bldg. 40, Wallingford CT 06492
  
  
 ---------------------------------------------------------------
 Warning -- This program may not be used in any manner that
 competes with the business of Gaussian, Inc. or will provide
 assistance to any competitor of Gaussian, Inc.  The licensee
 of this program is prohibited from giving any competitor of
 Gaussian, Inc. access to this program.  By using this program,
 the user acknowledges that Gaussian, Inc. is engaged in the
 business of creating and licensing software in the field of
 computational chemistry and represents and warrants to the
 licensee that it is not a competitor of Gaussian, Inc. and that
 it will not use this program in any manner prohibited above.
 ---------------------------------------------------------------
  

 Cite this work as:
 Gaussian 09, Revision D.01,
 M. J. Frisch, G. W. Trucks, H. B. Schlegel, G. E. Scuseria, 
 M. A. Robb, J. R. Cheeseman, G. Scalmani, V. Barone, B. Mennucci, 
 G. A. Petersson, H. Nakatsuji, M. Caricato, X. Li, H. P. Hratchian, 
 A. F. Izmaylov, J. Bloino, G. Zheng, J. L. Sonnenberg, M. Hada, 
 M. Ehara, K. Toyota, R. Fukuda, J. Hasegawa, M. Ishida, T. Nakajima, 
 Y. Honda, O. Kitao, H. Nakai, T. Vreven, J. A. Montgomery, Jr., 
 J. E. Peralta, F. Ogliaro, M. Bearpark, J. J. Heyd, E. Brothers, 
 K. N. Kudin, V. N. Staroverov, T. Keith, R. Kobayashi, J. Normand, 
 K. Raghavachari, A. Rendell, J. C. Burant, S. S. Iyengar, J. Tomasi, 
 M. Cossi, N. Rega, J. M. Millam, M. Klene, J. E. Knox, J. B. Cross, 
 V. Bakken, C. Adamo, J. Jaramillo, R. Gomperts, R. E. Stratmann, 
 O. Yazyev, A. J. Austin, R. Cammi, C. Pomelli, J. W. Ochterski, 
 R. L. Martin, K. Morokuma, V. G. Zakrzewski, G. A. Voth, 
 P. Salvador, J. J. Dannenberg, S. Dapprich, A. D. Daniels, 
 O. Farkas, J. B. Foresman, J. V. Ortiz, J. Cioslowski, 
 and D. J. Fox, Gaussian, Inc., Wallingford CT, 2013.
 
 ******************************************
 Gaussian 09:  ES64L-G09RevD.01 24-Apr-2013
                29-Oct-2018 
 ******************************************
 %chk=nP_EB11Ca.chk
 %mem=4GB
 ----------------------------------------------------------------------
 # bp86/gen freq int=ultrafine geom=checkpoint guess=checkpoint nosymm 
 scf=(xqc,maxconventionalcycles=128) scrf=(solvent=n-Pentadecane)
 ----------------------------------------------------------------------
 1/10=4,29=2,30=1,38=1/1,3;
 2/12=2,15=1,40=1/2;
 3/5=7,11=2,14=-4,16=1,25=1,30=1,70=2201,71=2,72=151,74=404,75=-5,116=-2,140=1/1,2,3;
 4/5=1/1;
 5/5=2,8=3,13=1,38=6,53=151,85=128,98=1/2,8;
 8/6=4,10=90,11=11/1;
 11/6=1,8=1,9=11,15=111,16=1,31=1/1,2,10;
 10/6=1,31=1/2;
 6/7=2,8=2,9=2,10=2,18=1,28=1/1;
 7/8=1,10=1,25=1,30=1/1,2,3,16;
 1/10=4,30=1/3;
 99//99;
 ---------
 nP_EB11Ca
 ---------
 Structure from the checkpoint file:  "nP_EB11Ca.chk"
 Charge =  2 Multiplicity = 1
 Redundant internal coordinates found in file.
 N,0,-3.0438307556,12.3595954175,12.3716997541
 C,0,-3.643842421,13.5822354763,11.7754925836
 C,0,-2.8129242528,14.7897180192,12.2751362079
 O,0,-1.7434350625,14.6388074726,12.8919113469
 C,0,-3.387911302,12.0068197162,13.769074908
 C,0,-5.2018701642,13.6821982478,11.921446778
 C,0,-5.8758113688,12.3105629719,11.7136774623
 C,0,-5.7847965645,14.6689876931,10.8851612378
 O,0,-3.2712999422,15.9823954472,11.9070330594
 C,0,-1.4172777108,10.4637545264,12.2465028144
 C,0,-1.9731563021,11.8119584945,11.7388825089
 O,0,-1.4521923126,12.3599269734,10.7193940621
 C,0,-2.0373767794,9.2163144741,11.5500535104
 C,0,-3.5767042721,9.2200501409,11.5273142385
 C,0,-1.5186433001,7.9274358741,12.2187498779
 C,0,-2.4699384675,17.1838383672,12.2278918657
 O,0,0.0239459467,10.3662220525,11.9272027811
 O,0,-0.8061415354,16.2661051791,10.7052247912
 O,0,2.2206546947,13.7438317784,10.6952737882
 O,0,1.3171791902,15.3819410298,12.8797160863
 O,0,0.429433094,12.3646463507,12.9032414071
 N,0,3.0510139687,12.3846983276,12.347241403
 N,0,-0.0135996329,17.6478582641,12.3556050907
 C,0,2.2872365416,11.2427583114,11.7763564039
 C,0,1.3441902798,17.5545629694,11.7576144371
 C,0,0.830297764,11.3603835681,12.2892603236
 C,0,1.9747284163,16.2309963636,12.2528489159
 C,0,3.5735364335,12.2753950209,13.7297647246
 C,0,-0.1451370426,18.1208384174,13.7534759666
 C,0,2.989347542,9.8500720688,11.9337964763
 C,0,2.2114631977,18.8529274375,11.9020920758
 C,0,4.5051544492,9.9585446735,11.6715969947
 C,0,1.3557686579,20.1182196387,11.690070226
 C,0,2.4009089599,8.8173212801,10.9467676821
 C,0,3.3602985609,18.8642271441,10.8689355869
 O,0,3.2315125836,16.0313151362,11.8650548918
 C,0,3.8804602254,14.7381988152,12.168588603
 C,0,2.9776031898,13.5774746901,11.7007498673
 C,0,-1.0224360628,16.9924496692,11.7227175955
 C,0,5.2429995718,14.819991565,11.4192578959
 C,0,-3.2395787099,18.344119147,11.5323266079
 C,0,6.0048802564,13.4828348452,11.3810297482
 C,0,-2.4896676574,19.6884479174,11.5704286103
 C,0,6.1224183038,15.9197662597,12.0465682989
 C,0,-4.6390280677,18.49716842,12.1612950056
 H,0,1.1779487829,17.4011439372,10.6737321246
 H,0,2.6553406484,18.8799931413,12.916136456
 H,0,4.038155837,18.0052143694,10.9651900142
 H,0,2.9564915736,18.8731486066,9.8396099383
 H,0,3.9544685484,19.7840018492,11.0011360932
 H,0,2.0073447301,21.0067890189,11.7427591518
 H,0,0.8877476249,20.1107797873,10.6889113181
 H,0,0.5622577375,20.247976052,12.4424306275
 H,0,4.0285673024,14.7059662058,13.2599052713
 H,0,4.9895004946,15.102172067,10.3790604452
 H,0,7.0460903289,16.0388661659,11.4554303894
 H,0,5.6162645781,16.8979829286,12.0791126737
 H,0,6.4164434082,15.6477421653,13.0771975544
 H,0,6.3020853731,13.1499085528,12.3919684777
 H,0,5.4328253522,12.6760407168,10.8947995461
 H,0,6.9345646829,13.6207915906,10.8041220826
 H,0,4.6567306158,12.4650913313,13.7699892849
 H,0,3.0390942536,12.971698857,14.3959359045
 H,0,3.3963820691,11.25384425,14.0899986474
 H,0,2.2212451971,11.4463873867,10.6899607694
 H,0,2.8243419759,9.4800667048,12.9639785832
 H,0,2.9204591333,7.8540700768,11.0838706285
 H,0,1.3254056965,8.6453355317,11.0880176961
 H,0,2.5670017437,9.1389231366,9.9019662585
 H,0,4.7001814343,10.3308829063,10.6493611532
 H,0,5.0336919245,10.6112461124,12.3834628616
 H,0,4.9561711513,8.9548244578,11.7484086519
 H,0,-1.5063661567,10.3945058805,13.3427255828
 H,0,-1.6775333626,9.2566607252,10.503862039
 H,0,-0.418209615,7.8806916661,12.2494535983
 H,0,-1.898737027,7.8404932009,13.2535967724
 H,0,-1.8770158892,7.0486550418,11.6566576332
 H,0,-4.0028205246,9.1512949273,12.5445403286
 H,0,-3.9986891514,10.1046239586,11.0235466232
 H,0,-3.9237244349,8.3303407967,10.9756390439
 H,0,-2.5271694261,12.1938418463,14.4320975262
 H,0,-4.2207377329,12.642743688,14.0958012035
 H,0,-3.7108600777,10.9587054839,13.8509237623
 H,0,-5.5929784094,14.3096233864,9.8569786876
 H,0,-6.8782114781,14.7272922616,11.0178170686
 H,0,-5.3764645591,15.6847112474,10.9765960039
 H,0,-5.5971852501,11.5582772826,12.4679289036
 H,0,-6.970179684,12.4385521299,11.767290198
 H,0,-5.639694667,11.9035739363,10.7137196236
 H,0,-5.4453088301,14.0553720215,12.9353054116
 H,0,-3.4281734066,13.5184072318,10.6911258514
 H,0,-2.4908810424,17.2958490935,13.3242391128
 H,0,-3.3458022362,18.037976171,10.4735012222
 H,0,-4.5620674441,18.7969628627,13.2226507823
 H,0,-5.1993465186,19.2846668211,11.6296785059
 H,0,-5.2298877486,17.5690586823,12.1074946113
 H,0,-1.495204734,19.6408540954,11.0982923294
 H,0,-3.0805367335,20.438245937,11.0182105149
 H,0,-2.3768415817,20.068302109,12.6021450963
 H,0,0.8220874426,18.5250365226,14.0787185864
 H,0,-0.8916328971,18.9242269216,13.8392021905
 H,0,-0.4104517539,17.2803633401,14.4152430426
 Ca,0,-0.0076584098,14.1179601715,11.2956980396
 Recover connectivity data from disk.

 GradGradGradGradGradGradGradGradGradGradGradGradGradGradGradGradGradGrad
 Berny optimization.
 Initialization pass.
                           ----------------------------
                           !    Initial Parameters    !
                           ! (Angstroms and Degrees)  !
 --------------------------                            --------------------------
 ! Name  Definition              Value          Derivative Info.                !
 --------------------------------------------------------------------------------
 ! R1    R(1,2)                  1.4867         calculate D2E/DX2 analytically  !
 ! R2    R(1,5)                  1.4817         calculate D2E/DX2 analytically  !
 ! R3    R(1,11)                 1.3589         calculate D2E/DX2 analytically  !
 ! R4    R(2,3)                  1.5486         calculate D2E/DX2 analytically  !
 ! R5    R(2,6)                  1.568          calculate D2E/DX2 analytically  !
 ! R6    R(2,91)                 1.1074         calculate D2E/DX2 analytically  !
 ! R7    R(3,4)                  1.2438         calculate D2E/DX2 analytically  !
 ! R8    R(3,9)                  1.3297         calculate D2E/DX2 analytically  !
 ! R9    R(4,103)                2.415          calculate D2E/DX2 analytically  !
 ! R10   R(5,81)                 1.1025         calculate D2E/DX2 analytically  !
 ! R11   R(5,82)                 1.0976         calculate D2E/DX2 analytically  !
 ! R12   R(5,83)                 1.0998         calculate D2E/DX2 analytically  !
 ! R13   R(6,7)                  1.5423         calculate D2E/DX2 analytically  !
 ! R14   R(6,8)                  1.5451         calculate D2E/DX2 analytically  !
 ! R15   R(6,90)                 1.1074         calculate D2E/DX2 analytically  !
 ! R16   R(7,87)                 1.1011         calculate D2E/DX2 analytically  !
 ! R17   R(7,88)                 1.1031         calculate D2E/DX2 analytically  !
 ! R18   R(7,89)                 1.1051         calculate D2E/DX2 analytically  !
 ! R19   R(8,84)                 1.1059         calculate D2E/DX2 analytically  !
 ! R20   R(8,85)                 1.103          calculate D2E/DX2 analytically  !
 ! R21   R(8,86)                 1.0985         calculate D2E/DX2 analytically  !
 ! R22   R(9,16)                 1.4794         calculate D2E/DX2 analytically  !
 ! R23   R(10,11)                1.5441         calculate D2E/DX2 analytically  !
 ! R24   R(10,13)                1.5575         calculate D2E/DX2 analytically  !
 ! R25   R(10,17)                1.4794         calculate D2E/DX2 analytically  !
 ! R26   R(10,73)                1.102          calculate D2E/DX2 analytically  !
 ! R27   R(11,12)                1.2693         calculate D2E/DX2 analytically  !
 ! R28   R(12,103)               2.3472         calculate D2E/DX2 analytically  !
 ! R29   R(13,14)                1.5395         calculate D2E/DX2 analytically  !
 ! R30   R(13,15)                1.5419         calculate D2E/DX2 analytically  !
 ! R31   R(13,74)                1.1071         calculate D2E/DX2 analytically  !
 ! R32   R(14,78)                1.105          calculate D2E/DX2 analytically  !
 ! R33   R(14,79)                1.102          calculate D2E/DX2 analytically  !
 ! R34   R(14,80)                1.1029         calculate D2E/DX2 analytically  !
 ! R35   R(15,75)                1.1019         calculate D2E/DX2 analytically  !
 ! R36   R(15,76)                1.1059         calculate D2E/DX2 analytically  !
 ! R37   R(15,77)                1.103          calculate D2E/DX2 analytically  !
 ! R38   R(16,39)                1.545          calculate D2E/DX2 analytically  !
 ! R39   R(16,41)                1.5564         calculate D2E/DX2 analytically  !
 ! R40   R(16,92)                1.1023         calculate D2E/DX2 analytically  !
 ! R41   R(17,26)                1.3303         calculate D2E/DX2 analytically  !
 ! R42   R(18,39)                1.2687         calculate D2E/DX2 analytically  !
 ! R43   R(18,103)               2.3666         calculate D2E/DX2 analytically  !
 ! R44   R(19,38)                1.2695         calculate D2E/DX2 analytically  !
 ! R45   R(19,103)               2.3379         calculate D2E/DX2 analytically  !
 ! R46   R(20,27)                1.2435         calculate D2E/DX2 analytically  !
 ! R47   R(20,103)               2.4211         calculate D2E/DX2 analytically  !
 ! R48   R(21,26)                1.2435         calculate D2E/DX2 analytically  !
 ! R49   R(21,103)               2.4185         calculate D2E/DX2 analytically  !
 ! R50   R(22,24)                1.4877         calculate D2E/DX2 analytically  !
 ! R51   R(22,28)                1.482          calculate D2E/DX2 analytically  !
 ! R52   R(22,38)                1.3587         calculate D2E/DX2 analytically  !
 ! R53   R(23,25)                1.4866         calculate D2E/DX2 analytically  !
 ! R54   R(23,29)                1.4816         calculate D2E/DX2 analytically  !
 ! R55   R(23,39)                1.3594         calculate D2E/DX2 analytically  !
 ! R56   R(24,26)                1.5491         calculate D2E/DX2 analytically  !
 ! R57   R(24,30)                1.5676         calculate D2E/DX2 analytically  !
 ! R58   R(24,65)                1.1073         calculate D2E/DX2 analytically  !
 ! R59   R(25,27)                1.5475         calculate D2E/DX2 analytically  !
 ! R60   R(25,31)                1.5681         calculate D2E/DX2 analytically  !
 ! R61   R(25,46)                1.1072         calculate D2E/DX2 analytically  !
 ! R62   R(27,36)                1.3303         calculate D2E/DX2 analytically  !
 ! R63   R(28,62)                1.1004         calculate D2E/DX2 analytically  !
 ! R64   R(28,63)                1.1019         calculate D2E/DX2 analytically  !
 ! R65   R(28,64)                1.0976         calculate D2E/DX2 analytically  !
 ! R66   R(29,100)               1.0976         calculate D2E/DX2 analytically  !
 ! R67   R(29,101)               1.1            calculate D2E/DX2 analytically  !
 ! R68   R(29,102)               1.1021         calculate D2E/DX2 analytically  !
 ! R69   R(30,32)                1.5421         calculate D2E/DX2 analytically  !
 ! R70   R(30,34)                1.545          calculate D2E/DX2 analytically  !
 ! R71   R(30,66)                1.107          calculate D2E/DX2 analytically  !
 ! R72   R(31,33)                1.5421         calculate D2E/DX2 analytically  !
 ! R73   R(31,35)                1.5451         calculate D2E/DX2 analytically  !
 ! R74   R(31,47)                1.1073         calculate D2E/DX2 analytically  !
 ! R75   R(32,70)                1.1053         calculate D2E/DX2 analytically  !
 ! R76   R(32,71)                1.101          calculate D2E/DX2 analytically  !
 ! R77   R(32,72)                1.1031         calculate D2E/DX2 analytically  !
 ! R78   R(33,51)                1.1031         calculate D2E/DX2 analytically  !
 ! R79   R(33,52)                1.1052         calculate D2E/DX2 analytically  !
 ! R80   R(33,53)                1.1012         calculate D2E/DX2 analytically  !
 ! R81   R(34,67)                1.103          calculate D2E/DX2 analytically  !
 ! R82   R(34,68)                1.0983         calculate D2E/DX2 analytically  !
 ! R83   R(34,69)                1.1057         calculate D2E/DX2 analytically  !
 ! R84   R(35,48)                1.0985         calculate D2E/DX2 analytically  !
 ! R85   R(35,49)                1.1057         calculate D2E/DX2 analytically  !
 ! R86   R(35,50)                1.103          calculate D2E/DX2 analytically  !
 ! R87   R(36,37)                1.4783         calculate D2E/DX2 analytically  !
 ! R88   R(37,38)                1.5431         calculate D2E/DX2 analytically  !
 ! R89   R(37,40)                1.5571         calculate D2E/DX2 analytically  !
 ! R90   R(37,54)                1.1018         calculate D2E/DX2 analytically  !
 ! R91   R(40,42)                1.5395         calculate D2E/DX2 analytically  !
 ! R92   R(40,44)                1.5416         calculate D2E/DX2 analytically  !
 ! R93   R(40,55)                1.1072         calculate D2E/DX2 analytically  !
 ! R94   R(41,43)                1.5398         calculate D2E/DX2 analytically  !
 ! R95   R(41,45)                1.5419         calculate D2E/DX2 analytically  !
 ! R96   R(41,93)                1.1073         calculate D2E/DX2 analytically  !
 ! R97   R(42,59)                1.1051         calculate D2E/DX2 analytically  !
 ! R98   R(42,60)                1.1021         calculate D2E/DX2 analytically  !
 ! R99   R(42,61)                1.1028         calculate D2E/DX2 analytically  !
 ! R100  R(43,97)                1.1019         calculate D2E/DX2 analytically  !
 ! R101  R(43,98)                1.1028         calculate D2E/DX2 analytically  !
 ! R102  R(43,99)                1.1052         calculate D2E/DX2 analytically  !
 ! R103  R(44,56)                1.1031         calculate D2E/DX2 analytically  !
 ! R104  R(44,57)                1.1019         calculate D2E/DX2 analytically  !
 ! R105  R(44,58)                1.1057         calculate D2E/DX2 analytically  !
 ! R106  R(45,94)                1.1056         calculate D2E/DX2 analytically  !
 ! R107  R(45,95)                1.1031         calculate D2E/DX2 analytically  !
 ! R108  R(45,96)                1.1015         calculate D2E/DX2 analytically  !
 ! A1    A(2,1,5)              118.7031         calculate D2E/DX2 analytically  !
 ! A2    A(2,1,11)             117.5574         calculate D2E/DX2 analytically  !
 ! A3    A(5,1,11)             121.7474         calculate D2E/DX2 analytically  !
 ! A4    A(1,2,3)              107.1755         calculate D2E/DX2 analytically  !
 ! A5    A(1,2,6)              114.5889         calculate D2E/DX2 analytically  !
 ! A6    A(1,2,91)             105.4663         calculate D2E/DX2 analytically  !
 ! A7    A(3,2,6)              116.9622         calculate D2E/DX2 analytically  !
 ! A8    A(3,2,91)             104.8548         calculate D2E/DX2 analytically  !
 ! A9    A(6,2,91)             106.7572         calculate D2E/DX2 analytically  !
 ! A10   A(2,3,4)              121.7874         calculate D2E/DX2 analytically  !
 ! A11   A(2,3,9)              115.1572         calculate D2E/DX2 analytically  !
 ! A12   A(4,3,9)              122.8556         calculate D2E/DX2 analytically  !
 ! A13   A(3,4,103)            108.4478         calculate D2E/DX2 analytically  !
 ! A14   A(1,5,81)             110.2106         calculate D2E/DX2 analytically  !
 ! A15   A(1,5,82)             108.6015         calculate D2E/DX2 analytically  !
 ! A16   A(1,5,83)             111.4244         calculate D2E/DX2 analytically  !
 ! A17   A(81,5,82)            108.3664         calculate D2E/DX2 analytically  !
 ! A18   A(81,5,83)            110.2532         calculate D2E/DX2 analytically  !
 ! A19   A(82,5,83)            107.8898         calculate D2E/DX2 analytically  !
 ! A20   A(2,6,7)              111.404          calculate D2E/DX2 analytically  !
 ! A21   A(2,6,8)              110.6797         calculate D2E/DX2 analytically  !
 ! A22   A(2,6,90)             108.9725         calculate D2E/DX2 analytically  !
 ! A23   A(7,6,8)              108.226          calculate D2E/DX2 analytically  !
 ! A24   A(7,6,90)             109.0839         calculate D2E/DX2 analytically  !
 ! A25   A(8,6,90)             108.4132         calculate D2E/DX2 analytically  !
 ! A26   A(6,7,87)             113.8753         calculate D2E/DX2 analytically  !
 ! A27   A(6,7,88)             108.8907         calculate D2E/DX2 analytically  !
 ! A28   A(6,7,89)             110.8578         calculate D2E/DX2 analytically  !
 ! A29   A(87,7,88)            107.2779         calculate D2E/DX2 analytically  !
 ! A30   A(87,7,89)            108.3084         calculate D2E/DX2 analytically  !
 ! A31   A(88,7,89)            107.3773         calculate D2E/DX2 analytically  !
 ! A32   A(6,8,84)             110.522          calculate D2E/DX2 analytically  !
 ! A33   A(6,8,85)             109.0924         calculate D2E/DX2 analytically  !
 ! A34   A(6,8,86)             113.2313         calculate D2E/DX2 analytically  !
 ! A35   A(84,8,85)            107.5136         calculate D2E/DX2 analytically  !
 ! A36   A(84,8,86)            108.2616         calculate D2E/DX2 analytically  !
 ! A37   A(85,8,86)            108.0349         calculate D2E/DX2 analytically  !
 ! A38   A(3,9,16)             118.7942         calculate D2E/DX2 analytically  !
 ! A39   A(11,10,13)           114.1411         calculate D2E/DX2 analytically  !
 ! A40   A(11,10,17)           109.7135         calculate D2E/DX2 analytically  !
 ! A41   A(11,10,73)           110.6573         calculate D2E/DX2 analytically  !
 ! A42   A(13,10,17)           103.8015         calculate D2E/DX2 analytically  !
 ! A43   A(13,10,73)           111.2417         calculate D2E/DX2 analytically  !
 ! A44   A(17,10,73)           106.8167         calculate D2E/DX2 analytically  !
 ! A45   A(1,11,10)            118.8424         calculate D2E/DX2 analytically  !
 ! A46   A(1,11,12)            121.5629         calculate D2E/DX2 analytically  !
 ! A47   A(10,11,12)           119.5534         calculate D2E/DX2 analytically  !
 ! A48   A(11,12,103)          112.2557         calculate D2E/DX2 analytically  !
 ! A49   A(10,13,14)           113.7512         calculate D2E/DX2 analytically  !
 ! A50   A(10,13,15)           109.9766         calculate D2E/DX2 analytically  !
 ! A51   A(10,13,74)           105.3059         calculate D2E/DX2 analytically  !
 ! A52   A(14,13,15)           110.1709         calculate D2E/DX2 analytically  !
 ! A53   A(14,13,74)           108.1168         calculate D2E/DX2 analytically  !
 ! A54   A(15,13,74)           109.3261         calculate D2E/DX2 analytically  !
 ! A55   A(13,14,78)           111.8285         calculate D2E/DX2 analytically  !
 ! A56   A(13,14,79)           113.0539         calculate D2E/DX2 analytically  !
 ! A57   A(13,14,80)           108.6656         calculate D2E/DX2 analytically  !
 ! A58   A(78,14,79)           108.8513         calculate D2E/DX2 analytically  !
 ! A59   A(78,14,80)           106.7947         calculate D2E/DX2 analytically  !
 ! A60   A(79,14,80)           107.3617         calculate D2E/DX2 analytically  !
 ! A61   A(13,15,75)           112.553          calculate D2E/DX2 analytically  !
 ! A62   A(13,15,76)           110.8498         calculate D2E/DX2 analytically  !
 ! A63   A(13,15,77)           109.6129         calculate D2E/DX2 analytically  !
 ! A64   A(75,15,76)           108.2916         calculate D2E/DX2 analytically  !
 ! A65   A(75,15,77)           107.7513         calculate D2E/DX2 analytically  !
 ! A66   A(76,15,77)           107.6116         calculate D2E/DX2 analytically  !
 ! A67   A(9,16,39)            109.632          calculate D2E/DX2 analytically  !
 ! A68   A(9,16,41)            103.9241         calculate D2E/DX2 analytically  !
 ! A69   A(9,16,92)            106.7358         calculate D2E/DX2 analytically  !
 ! A70   A(39,16,41)           114.174          calculate D2E/DX2 analytically  !
 ! A71   A(39,16,92)           110.8306         calculate D2E/DX2 analytically  !
 ! A72   A(41,16,92)           111.0608         calculate D2E/DX2 analytically  !
 ! A73   A(10,17,26)           118.849          calculate D2E/DX2 analytically  !
 ! A74   A(39,18,103)          112.1529         calculate D2E/DX2 analytically  !
 ! A75   A(38,19,103)          112.6975         calculate D2E/DX2 analytically  !
 ! A76   A(27,20,103)          108.4213         calculate D2E/DX2 analytically  !
 ! A77   A(26,21,103)          108.3945         calculate D2E/DX2 analytically  !
 ! A78   A(24,22,28)           118.8404         calculate D2E/DX2 analytically  !
 ! A79   A(24,22,38)           117.6145         calculate D2E/DX2 analytically  !
 ! A80   A(28,22,38)           121.8484         calculate D2E/DX2 analytically  !
 ! A81   A(25,23,29)           118.7287         calculate D2E/DX2 analytically  !
 ! A82   A(25,23,39)           117.4069         calculate D2E/DX2 analytically  !
 ! A83   A(29,23,39)           121.8237         calculate D2E/DX2 analytically  !
 ! A84   A(22,24,26)           107.3086         calculate D2E/DX2 analytically  !
 ! A85   A(22,24,30)           114.4221         calculate D2E/DX2 analytically  !
 ! A86   A(22,24,65)           105.4224         calculate D2E/DX2 analytically  !
 ! A87   A(26,24,30)           117.0949         calculate D2E/DX2 analytically  !
 ! A88   A(26,24,65)           104.7643         calculate D2E/DX2 analytically  !
 ! A89   A(30,24,65)           106.7751         calculate D2E/DX2 analytically  !
 ! A90   A(23,25,27)           107.284          calculate D2E/DX2 analytically  !
 ! A91   A(23,25,31)           114.5916         calculate D2E/DX2 analytically  !
 ! A92   A(23,25,46)           105.3871         calculate D2E/DX2 analytically  !
 ! A93   A(27,25,31)           116.9592         calculate D2E/DX2 analytically  !
 ! A94   A(27,25,46)           104.8295         calculate D2E/DX2 analytically  !
 ! A95   A(31,25,46)           106.7362         calculate D2E/DX2 analytically  !
 ! A96   A(17,26,21)           122.8571         calculate D2E/DX2 analytically  !
 ! A97   A(17,26,24)           115.0394         calculate D2E/DX2 analytically  !
 ! A98   A(21,26,24)           121.8719         calculate D2E/DX2 analytically  !
 ! A99   A(20,27,25)           121.9974         calculate D2E/DX2 analytically  !
 ! A100  A(20,27,36)           122.9586         calculate D2E/DX2 analytically  !
 ! A101  A(25,27,36)           114.8366         calculate D2E/DX2 analytically  !
 ! A102  A(22,28,62)           111.6198         calculate D2E/DX2 analytically  !
 ! A103  A(22,28,63)           110.2649         calculate D2E/DX2 analytically  !
 ! A104  A(22,28,64)           108.5364         calculate D2E/DX2 analytically  !
 ! A105  A(62,28,63)           110.2665         calculate D2E/DX2 analytically  !
 ! A106  A(62,28,64)           107.8979         calculate D2E/DX2 analytically  !
 ! A107  A(63,28,64)           108.1448         calculate D2E/DX2 analytically  !
 ! A108  A(23,29,100)          108.5972         calculate D2E/DX2 analytically  !
 ! A109  A(23,29,101)          111.5267         calculate D2E/DX2 analytically  !
 ! A110  A(23,29,102)          110.1475         calculate D2E/DX2 analytically  !
 ! A111  A(100,29,101)         107.8167         calculate D2E/DX2 analytically  !
 ! A112  A(100,29,102)         108.3633         calculate D2E/DX2 analytically  !
 ! A113  A(101,29,102)         110.2911         calculate D2E/DX2 analytically  !
 ! A114  A(24,30,32)           111.1419         calculate D2E/DX2 analytically  !
 ! A115  A(24,30,34)           111.0458         calculate D2E/DX2 analytically  !
 ! A116  A(24,30,66)           108.8844         calculate D2E/DX2 analytically  !
 ! A117  A(32,30,34)           108.2256         calculate D2E/DX2 analytically  !
 ! A118  A(32,30,66)           109.1628         calculate D2E/DX2 analytically  !
 ! A119  A(34,30,66)           108.3205         calculate D2E/DX2 analytically  !
 ! A120  A(25,31,33)           111.0883         calculate D2E/DX2 analytically  !
 ! A121  A(25,31,35)           110.8354         calculate D2E/DX2 analytically  !
 ! A122  A(25,31,47)           109.0468         calculate D2E/DX2 analytically  !
 ! A123  A(33,31,35)           108.339          calculate D2E/DX2 analytically  !
 ! A124  A(33,31,47)           109.1653         calculate D2E/DX2 analytically  !
 ! A125  A(35,31,47)           108.3079         calculate D2E/DX2 analytically  !
 ! A126  A(30,32,70)           110.7556         calculate D2E/DX2 analytically  !
 ! A127  A(30,32,71)           113.8057         calculate D2E/DX2 analytically  !
 ! A128  A(30,32,72)           109.0291         calculate D2E/DX2 analytically  !
 ! A129  A(70,32,71)           108.2753         calculate D2E/DX2 analytically  !
 ! A130  A(70,32,72)           107.3848         calculate D2E/DX2 analytically  !
 ! A131  A(71,32,72)           107.3457         calculate D2E/DX2 analytically  !
 ! A132  A(31,33,51)           109.0619         calculate D2E/DX2 analytically  !
 ! A133  A(31,33,52)           110.7325         calculate D2E/DX2 analytically  !
 ! A134  A(31,33,53)           113.741          calculate D2E/DX2 analytically  !
 ! A135  A(51,33,52)           107.387          calculate D2E/DX2 analytically  !
 ! A136  A(51,33,53)           107.343          calculate D2E/DX2 analytically  !
 ! A137  A(52,33,53)           108.3346         calculate D2E/DX2 analytically  !
 ! A138  A(30,34,67)           108.9623         calculate D2E/DX2 analytically  !
 ! A139  A(30,34,68)           113.2956         calculate D2E/DX2 analytically  !
 ! A140  A(30,34,69)           110.6111         calculate D2E/DX2 analytically  !
 ! A141  A(67,34,68)           107.9703         calculate D2E/DX2 analytically  !
 ! A142  A(67,34,69)           107.4997         calculate D2E/DX2 analytically  !
 ! A143  A(68,34,69)           108.3104         calculate D2E/DX2 analytically  !
 ! A144  A(31,35,48)           113.2355         calculate D2E/DX2 analytically  !
 ! A145  A(31,35,49)           110.5474         calculate D2E/DX2 analytically  !
 ! A146  A(31,35,50)           109.0564         calculate D2E/DX2 analytically  !
 ! A147  A(48,35,49)           108.2543         calculate D2E/DX2 analytically  !
 ! A148  A(48,35,50)           108.0107         calculate D2E/DX2 analytically  !
 ! A149  A(49,35,50)           107.5527         calculate D2E/DX2 analytically  !
 ! A150  A(27,36,37)           119.0881         calculate D2E/DX2 analytically  !
 ! A151  A(36,37,38)           109.8078         calculate D2E/DX2 analytically  !
 ! A152  A(36,37,40)           103.849          calculate D2E/DX2 analytically  !
 ! A153  A(36,37,54)           106.7365         calculate D2E/DX2 analytically  !
 ! A154  A(38,37,40)           113.927          calculate D2E/DX2 analytically  !
 ! A155  A(38,37,54)           110.9119         calculate D2E/DX2 analytically  !
 ! A156  A(40,37,54)           111.1345         calculate D2E/DX2 analytically  !
 ! A157  A(19,38,22)           121.6087         calculate D2E/DX2 analytically  !
 ! A158  A(19,38,37)           119.3674         calculate D2E/DX2 analytically  !
 ! A159  A(22,38,37)           118.9771         calculate D2E/DX2 analytically  !
 ! A160  A(16,39,18)           119.529          calculate D2E/DX2 analytically  !
 ! A161  A(16,39,23)           118.904          calculate D2E/DX2 analytically  !
 ! A162  A(18,39,23)           121.5265         calculate D2E/DX2 analytically  !
 ! A163  A(37,40,42)           113.5393         calculate D2E/DX2 analytically  !
 ! A164  A(37,40,44)           109.9273         calculate D2E/DX2 analytically  !
 ! A165  A(37,40,55)           105.3756         calculate D2E/DX2 analytically  !
 ! A166  A(42,40,44)           110.3311         calculate D2E/DX2 analytically  !
 ! A167  A(42,40,55)           108.1406         calculate D2E/DX2 analytically  !
 ! A168  A(44,40,55)           109.3354         calculate D2E/DX2 analytically  !
 ! A169  A(16,41,43)           113.513          calculate D2E/DX2 analytically  !
 ! A170  A(16,41,45)           109.9078         calculate D2E/DX2 analytically  !
 ! A171  A(16,41,93)           105.5849         calculate D2E/DX2 analytically  !
 ! A172  A(43,41,45)           110.198          calculate D2E/DX2 analytically  !
 ! A173  A(43,41,93)           108.1651         calculate D2E/DX2 analytically  !
 ! A174  A(45,41,93)           109.2951         calculate D2E/DX2 analytically  !
 ! A175  A(40,42,59)           111.8433         calculate D2E/DX2 analytically  !
 ! A176  A(40,42,60)           112.9503         calculate D2E/DX2 analytically  !
 ! A177  A(40,42,61)           108.7565         calculate D2E/DX2 analytically  !
 ! A178  A(59,42,60)           108.8241         calculate D2E/DX2 analytically  !
 ! A179  A(59,42,61)           106.8299         calculate D2E/DX2 analytically  !
 ! A180  A(60,42,61)           107.3593         calculate D2E/DX2 analytically  !
 ! A181  A(41,43,97)           113.0307         calculate D2E/DX2 analytically  !
 ! A182  A(41,43,98)           108.6778         calculate D2E/DX2 analytically  !
 ! A183  A(41,43,99)           111.8934         calculate D2E/DX2 analytically  !
 ! A184  A(97,43,98)           107.3588         calculate D2E/DX2 analytically  !
 ! A185  A(97,43,99)           108.8266         calculate D2E/DX2 analytically  !
 ! A186  A(98,43,99)           106.7654         calculate D2E/DX2 analytically  !
 ! A187  A(40,44,56)           109.6724         calculate D2E/DX2 analytically  !
 ! A188  A(40,44,57)           112.5393         calculate D2E/DX2 analytically  !
 ! A189  A(40,44,58)           110.8228         calculate D2E/DX2 analytically  !
 ! A190  A(56,44,57)           107.735          calculate D2E/DX2 analytically  !
 ! A191  A(56,44,58)           107.6618         calculate D2E/DX2 analytically  !
 ! A192  A(57,44,58)           108.2412         calculate D2E/DX2 analytically  !
 ! A193  A(41,45,94)           110.8142         calculate D2E/DX2 analytically  !
 ! A194  A(41,45,95)           109.5912         calculate D2E/DX2 analytically  !
 ! A195  A(41,45,96)           112.537          calculate D2E/DX2 analytically  !
 ! A196  A(94,45,95)           107.7247         calculate D2E/DX2 analytically  !
 ! A197  A(94,45,96)           108.2221         calculate D2E/DX2 analytically  !
 ! A198  A(95,45,96)           107.7889         calculate D2E/DX2 analytically  !
 ! A199  A(4,103,12)            83.1934         calculate D2E/DX2 analytically  !
 ! A200  A(4,103,18)            74.1357         calculate D2E/DX2 analytically  !
 ! A201  A(4,103,19)           152.7882         calculate D2E/DX2 analytically  !
 ! A202  A(4,103,20)            81.273          calculate D2E/DX2 analytically  !
 ! A203  A(4,103,21)            81.1947         calculate D2E/DX2 analytically  !
 ! A204  A(12,103,18)          114.2643         calculate D2E/DX2 analytically  !
 ! A205  A(12,103,19)          113.807          calculate D2E/DX2 analytically  !
 ! A206  A(12,103,20)          152.6729         calculate D2E/DX2 analytically  !
 ! A207  A(12,103,21)           74.4217         calculate D2E/DX2 analytically  !
 ! A208  A(18,103,19)          113.7507         calculate D2E/DX2 analytically  !
 ! A209  A(18,103,20)           82.7608         calculate D2E/DX2 analytically  !
 ! A210  A(18,103,21)          152.2324         calculate D2E/DX2 analytically  !
 ! A211  A(19,103,20)           74.3372         calculate D2E/DX2 analytically  !
 ! A212  A(19,103,21)           83.2486         calculate D2E/DX2 analytically  !
 ! A213  A(20,103,21)           81.0666         calculate D2E/DX2 analytically  !
 ! D1    D(5,1,2,3)             80.6698         calculate D2E/DX2 analytically  !
 ! D2    D(5,1,2,6)            -50.8845         calculate D2E/DX2 analytically  !
 ! D3    D(5,1,2,91)          -167.9879         calculate D2E/DX2 analytically  !
 ! D4    D(11,1,2,3)           -83.5675         calculate D2E/DX2 analytically  !
 ! D5    D(11,1,2,6)           144.8782         calculate D2E/DX2 analytically  !
 ! D6    D(11,1,2,91)           27.7749         calculate D2E/DX2 analytically  !
 ! D7    D(2,1,5,81)          -107.7426         calculate D2E/DX2 analytically  !
 ! D8    D(2,1,5,82)            10.8238         calculate D2E/DX2 analytically  !
 ! D9    D(2,1,5,83)           129.525          calculate D2E/DX2 analytically  !
 ! D10   D(11,1,5,81)           55.8056         calculate D2E/DX2 analytically  !
 ! D11   D(11,1,5,82)          174.3719         calculate D2E/DX2 analytically  !
 ! D12   D(11,1,5,83)          -66.9269         calculate D2E/DX2 analytically  !
 ! D13   D(2,1,11,10)         -173.762          calculate D2E/DX2 analytically  !
 ! D14   D(2,1,11,12)            3.8912         calculate D2E/DX2 analytically  !
 ! D15   D(5,1,11,10)           22.5099         calculate D2E/DX2 analytically  !
 ! D16   D(5,1,11,12)         -159.8368         calculate D2E/DX2 analytically  !
 ! D17   D(1,2,3,4)              9.3883         calculate D2E/DX2 analytically  !
 ! D18   D(1,2,3,9)           -175.6099         calculate D2E/DX2 analytically  !
 ! D19   D(6,2,3,4)            139.6191         calculate D2E/DX2 analytically  !
 ! D20   D(6,2,3,9)            -45.3791         calculate D2E/DX2 analytically  !
 ! D21   D(91,2,3,4)          -102.3736         calculate D2E/DX2 analytically  !
 ! D22   D(91,2,3,9)            72.6282         calculate D2E/DX2 analytically  !
 ! D23   D(1,2,6,7)            -39.5439         calculate D2E/DX2 analytically  !
 ! D24   D(1,2,6,8)           -160.0099         calculate D2E/DX2 analytically  !
 ! D25   D(1,2,6,90)            80.8607         calculate D2E/DX2 analytically  !
 ! D26   D(3,2,6,7)           -166.2086         calculate D2E/DX2 analytically  !
 ! D27   D(3,2,6,8)             73.3254         calculate D2E/DX2 analytically  !
 ! D28   D(3,2,6,90)           -45.804          calculate D2E/DX2 analytically  !
 ! D29   D(91,2,6,7)            76.8191         calculate D2E/DX2 analytically  !
 ! D30   D(91,2,6,8)           -43.6469         calculate D2E/DX2 analytically  !
 ! D31   D(91,2,6,90)         -162.7763         calculate D2E/DX2 analytically  !
 ! D32   D(2,3,4,103)           78.3767         calculate D2E/DX2 analytically  !
 ! D33   D(9,3,4,103)          -96.2366         calculate D2E/DX2 analytically  !
 ! D34   D(2,3,9,16)          -174.1605         calculate D2E/DX2 analytically  !
 ! D35   D(4,3,9,16)             0.7818         calculate D2E/DX2 analytically  !
 ! D36   D(3,4,103,12)         -56.305          calculate D2E/DX2 analytically  !
 ! D37   D(3,4,103,18)          61.3516         calculate D2E/DX2 analytically  !
 ! D38   D(3,4,103,19)         172.6336         calculate D2E/DX2 analytically  !
 ! D39   D(3,4,103,20)         146.2505         calculate D2E/DX2 analytically  !
 ! D40   D(3,4,103,21)        -131.5196         calculate D2E/DX2 analytically  !
 ! D41   D(2,6,7,87)            63.5712         calculate D2E/DX2 analytically  !
 ! D42   D(2,6,7,88)          -176.7753         calculate D2E/DX2 analytically  !
 ! D43   D(2,6,7,89)           -58.8587         calculate D2E/DX2 analytically  !
 ! D44   D(8,6,7,87)          -174.5307         calculate D2E/DX2 analytically  !
 ! D45   D(8,6,7,88)           -54.8771         calculate D2E/DX2 analytically  !
 ! D46   D(8,6,7,89)            63.0394         calculate D2E/DX2 analytically  !
 ! D47   D(90,6,7,87)          -56.7679         calculate D2E/DX2 analytically  !
 ! D48   D(90,6,7,88)           62.8857         calculate D2E/DX2 analytically  !
 ! D49   D(90,6,7,89)         -179.1978         calculate D2E/DX2 analytically  !
 ! D50   D(2,6,8,84)            62.5879         calculate D2E/DX2 analytically  !
 ! D51   D(2,6,8,85)          -179.4041         calculate D2E/DX2 analytically  !
 ! D52   D(2,6,8,86)           -59.0661         calculate D2E/DX2 analytically  !
 ! D53   D(7,6,8,84)           -59.7541         calculate D2E/DX2 analytically  !
 ! D54   D(7,6,8,85)            58.2539         calculate D2E/DX2 analytically  !
 ! D55   D(7,6,8,86)           178.5919         calculate D2E/DX2 analytically  !
 ! D56   D(90,6,8,84)         -177.9454         calculate D2E/DX2 analytically  !
 ! D57   D(90,6,8,85)          -59.9375         calculate D2E/DX2 analytically  !
 ! D58   D(90,6,8,86)           60.4005         calculate D2E/DX2 analytically  !
 ! D59   D(3,9,16,39)           52.2452         calculate D2E/DX2 analytically  !
 ! D60   D(3,9,16,41)          174.6829         calculate D2E/DX2 analytically  !
 ! D61   D(3,9,16,92)          -67.855          calculate D2E/DX2 analytically  !
 ! D62   D(13,10,11,1)          91.4352         calculate D2E/DX2 analytically  !
 ! D63   D(13,10,11,12)        -86.2662         calculate D2E/DX2 analytically  !
 ! D64   D(17,10,11,1)        -152.57           calculate D2E/DX2 analytically  !
 ! D65   D(17,10,11,12)         29.7286         calculate D2E/DX2 analytically  !
 ! D66   D(73,10,11,1)         -34.9548         calculate D2E/DX2 analytically  !
 ! D67   D(73,10,11,12)        147.3438         calculate D2E/DX2 analytically  !
 ! D68   D(11,10,13,14)        -50.4673         calculate D2E/DX2 analytically  !
 ! D69   D(11,10,13,15)       -174.5787         calculate D2E/DX2 analytically  !
 ! D70   D(11,10,13,74)         67.7392         calculate D2E/DX2 analytically  !
 ! D71   D(17,10,13,14)       -169.856          calculate D2E/DX2 analytically  !
 ! D72   D(17,10,13,15)         66.0326         calculate D2E/DX2 analytically  !
 ! D73   D(17,10,13,74)        -51.6495         calculate D2E/DX2 analytically  !
 ! D74   D(73,10,13,14)         75.6174         calculate D2E/DX2 analytically  !
 ! D75   D(73,10,13,15)        -48.494          calculate D2E/DX2 analytically  !
 ! D76   D(73,10,13,74)       -166.1761         calculate D2E/DX2 analytically  !
 ! D77   D(11,10,17,26)         52.0061         calculate D2E/DX2 analytically  !
 ! D78   D(13,10,17,26)        174.3761         calculate D2E/DX2 analytically  !
 ! D79   D(73,10,17,26)        -67.9792         calculate D2E/DX2 analytically  !
 ! D80   D(1,11,12,103)         80.5456         calculate D2E/DX2 analytically  !
 ! D81   D(10,11,12,103)      -101.8175         calculate D2E/DX2 analytically  !
 ! D82   D(11,12,103,4)        -41.5346         calculate D2E/DX2 analytically  !
 ! D83   D(11,12,103,18)      -110.6934         calculate D2E/DX2 analytically  !
 ! D84   D(11,12,103,19)       116.3261         calculate D2E/DX2 analytically  !
 ! D85   D(11,12,103,20)        14.1435         calculate D2E/DX2 analytically  !
 ! D86   D(11,12,103,21)        41.1826         calculate D2E/DX2 analytically  !
 ! D87   D(10,13,14,78)        -65.0783         calculate D2E/DX2 analytically  !
 ! D88   D(10,13,14,79)         58.2029         calculate D2E/DX2 analytically  !
 ! D89   D(10,13,14,80)        177.2858         calculate D2E/DX2 analytically  !
 ! D90   D(15,13,14,78)         58.9281         calculate D2E/DX2 analytically  !
 ! D91   D(15,13,14,79)       -177.7907         calculate D2E/DX2 analytically  !
 ! D92   D(15,13,14,80)        -58.7078         calculate D2E/DX2 analytically  !
 ! D93   D(74,13,14,78)        178.344          calculate D2E/DX2 analytically  !
 ! D94   D(74,13,14,79)        -58.3748         calculate D2E/DX2 analytically  !
 ! D95   D(74,13,14,80)         60.7081         calculate D2E/DX2 analytically  !
 ! D96   D(10,13,15,75)        -54.2464         calculate D2E/DX2 analytically  !
 ! D97   D(10,13,15,76)         67.2084         calculate D2E/DX2 analytically  !
 ! D98   D(10,13,15,77)       -174.1441         calculate D2E/DX2 analytically  !
 ! D99   D(14,13,15,75)        179.5904         calculate D2E/DX2 analytically  !
 ! D100  D(14,13,15,76)        -58.9548         calculate D2E/DX2 analytically  !
 ! D101  D(14,13,15,77)         59.6927         calculate D2E/DX2 analytically  !
 ! D102  D(74,13,15,75)         60.9124         calculate D2E/DX2 analytically  !
 ! D103  D(74,13,15,76)       -177.6328         calculate D2E/DX2 analytically  !
 ! D104  D(74,13,15,77)        -58.9853         calculate D2E/DX2 analytically  !
 ! D105  D(9,16,39,18)          29.6639         calculate D2E/DX2 analytically  !
 ! D106  D(9,16,39,23)        -152.6165         calculate D2E/DX2 analytically  !
 ! D107  D(41,16,39,18)        -86.4504         calculate D2E/DX2 analytically  !
 ! D108  D(41,16,39,23)         91.2692         calculate D2E/DX2 analytically  !
 ! D109  D(92,16,39,18)        147.234          calculate D2E/DX2 analytically  !
 ! D110  D(92,16,39,23)        -35.0464         calculate D2E/DX2 analytically  !
 ! D111  D(9,16,41,43)        -172.3906         calculate D2E/DX2 analytically  !
 ! D112  D(9,16,41,45)          63.6902         calculate D2E/DX2 analytically  !
 ! D113  D(9,16,41,93)         -54.0757         calculate D2E/DX2 analytically  !
 ! D114  D(39,16,41,43)        -53.0036         calculate D2E/DX2 analytically  !
 ! D115  D(39,16,41,45)       -176.9228         calculate D2E/DX2 analytically  !
 ! D116  D(39,16,41,93)         65.3113         calculate D2E/DX2 analytically  !
 ! D117  D(92,16,41,43)         73.1918         calculate D2E/DX2 analytically  !
 ! D118  D(92,16,41,45)        -50.7274         calculate D2E/DX2 analytically  !
 ! D119  D(92,16,41,93)       -168.4933         calculate D2E/DX2 analytically  !
 ! D120  D(10,17,26,21)          1.0284         calculate D2E/DX2 analytically  !
 ! D121  D(10,17,26,24)       -173.5318         calculate D2E/DX2 analytically  !
 ! D122  D(103,18,39,16)      -101.5324         calculate D2E/DX2 analytically  !
 ! D123  D(103,18,39,23)        80.8096         calculate D2E/DX2 analytically  !
 ! D124  D(39,18,103,4)         40.9373         calculate D2E/DX2 analytically  !
 ! D125  D(39,18,103,12)       115.6742         calculate D2E/DX2 analytically  !
 ! D126  D(39,18,103,19)      -111.3186         calculate D2E/DX2 analytically  !
 ! D127  D(39,18,103,20)       -42.003          calculate D2E/DX2 analytically  !
 ! D128  D(39,18,103,21)        12.7399         calculate D2E/DX2 analytically  !
 ! D129  D(103,19,38,22)        80.2944         calculate D2E/DX2 analytically  !
 ! D130  D(103,19,38,37)      -102.2204         calculate D2E/DX2 analytically  !
 ! D131  D(38,19,103,4)         13.717          calculate D2E/DX2 analytically  !
 ! D132  D(38,19,103,12)      -111.3658         calculate D2E/DX2 analytically  !
 ! D133  D(38,19,103,18)       115.4092         calculate D2E/DX2 analytically  !
 ! D134  D(38,19,103,20)        40.8569         calculate D2E/DX2 analytically  !
 ! D135  D(38,19,103,21)       -41.7193         calculate D2E/DX2 analytically  !
 ! D136  D(103,20,27,25)        79.0195         calculate D2E/DX2 analytically  !
 ! D137  D(103,20,27,36)       -95.4751         calculate D2E/DX2 analytically  !
 ! D138  D(27,20,103,4)       -130.8976         calculate D2E/DX2 analytically  !
 ! D139  D(27,20,103,12)       173.0378         calculate D2E/DX2 analytically  !
 ! D140  D(27,20,103,18)       -55.9253         calculate D2E/DX2 analytically  !
 ! D141  D(27,20,103,19)        61.2856         calculate D2E/DX2 analytically  !
 ! D142  D(27,20,103,21)       146.7247         calculate D2E/DX2 analytically  !
 ! D143  D(103,21,26,17)       -95.7689         calculate D2E/DX2 analytically  !
 ! D144  D(103,21,26,24)        78.4263         calculate D2E/DX2 analytically  !
 ! D145  D(26,21,103,4)        146.3462         calculate D2E/DX2 analytically  !
 ! D146  D(26,21,103,12)        61.0106         calculate D2E/DX2 analytically  !
 ! D147  D(26,21,103,18)       173.729          calculate D2E/DX2 analytically  !
 ! D148  D(26,21,103,19)       -56.0532         calculate D2E/DX2 analytically  !
 ! D149  D(26,21,103,20)      -131.1854         calculate D2E/DX2 analytically  !
 ! D150  D(28,22,24,26)         82.0835         calculate D2E/DX2 analytically  !
 ! D151  D(28,22,24,30)        -49.6339         calculate D2E/DX2 analytically  !
 ! D152  D(28,22,24,65)       -166.6399         calculate D2E/DX2 analytically  !
 ! D153  D(38,22,24,26)        -83.3588         calculate D2E/DX2 analytically  !
 ! D154  D(38,22,24,30)        144.9239         calculate D2E/DX2 analytically  !
 ! D155  D(38,22,24,65)         27.9178         calculate D2E/DX2 analytically  !
 ! D156  D(24,22,28,62)        125.5938         calculate D2E/DX2 analytically  !
 ! D157  D(24,22,28,63)       -111.483          calculate D2E/DX2 analytically  !
 ! D158  D(24,22,28,64)          6.8067         calculate D2E/DX2 analytically  !
 ! D159  D(38,22,28,62)        -69.6067         calculate D2E/DX2 analytically  !
 ! D160  D(38,22,28,63)         53.3165         calculate D2E/DX2 analytically  !
 ! D161  D(38,22,28,64)        171.6062         calculate D2E/DX2 analytically  !
 ! D162  D(24,22,38,19)          4.4169         calculate D2E/DX2 analytically  !
 ! D163  D(24,22,38,37)       -173.0779         calculate D2E/DX2 analytically  !
 ! D164  D(28,22,38,19)       -160.5603         calculate D2E/DX2 analytically  !
 ! D165  D(28,22,38,37)         21.9449         calculate D2E/DX2 analytically  !
 ! D166  D(29,23,25,27)         80.6848         calculate D2E/DX2 analytically  !
 ! D167  D(29,23,25,31)        -50.9638         calculate D2E/DX2 analytically  !
 ! D168  D(29,23,25,46)       -167.991          calculate D2E/DX2 analytically  !
 ! D169  D(39,23,25,27)        -83.3781         calculate D2E/DX2 analytically  !
 ! D170  D(39,23,25,31)        144.9733         calculate D2E/DX2 analytically  !
 ! D171  D(39,23,25,46)         27.9461         calculate D2E/DX2 analytically  !
 ! D172  D(25,23,29,100)        10.9917         calculate D2E/DX2 analytically  !
 ! D173  D(25,23,29,101)       129.6615         calculate D2E/DX2 analytically  !
 ! D174  D(25,23,29,102)      -107.5315         calculate D2E/DX2 analytically  !
 ! D175  D(39,23,29,100)       174.3198         calculate D2E/DX2 analytically  !
 ! D176  D(39,23,29,101)       -67.0103         calculate D2E/DX2 analytically  !
 ! D177  D(39,23,29,102)        55.7967         calculate D2E/DX2 analytically  !
 ! D178  D(25,23,39,16)       -173.7379         calculate D2E/DX2 analytically  !
 ! D179  D(25,23,39,18)          3.9343         calculate D2E/DX2 analytically  !
 ! D180  D(29,23,39,16)         22.7242         calculate D2E/DX2 analytically  !
 ! D181  D(29,23,39,18)       -159.6036         calculate D2E/DX2 analytically  !
 ! D182  D(22,24,26,17)       -176.4692         calculate D2E/DX2 analytically  !
 ! D183  D(22,24,26,21)          8.9115         calculate D2E/DX2 analytically  !
 ! D184  D(30,24,26,17)        -46.2369         calculate D2E/DX2 analytically  !
 ! D185  D(30,24,26,21)        139.1437         calculate D2E/DX2 analytically  !
 ! D186  D(65,24,26,17)         71.8037         calculate D2E/DX2 analytically  !
 ! D187  D(65,24,26,21)       -102.8156         calculate D2E/DX2 analytically  !
 ! D188  D(22,24,30,32)        -40.8383         calculate D2E/DX2 analytically  !
 ! D189  D(22,24,30,34)       -161.3754         calculate D2E/DX2 analytically  !
 ! D190  D(22,24,30,66)         79.4429         calculate D2E/DX2 analytically  !
 ! D191  D(26,24,30,32)       -167.6618         calculate D2E/DX2 analytically  !
 ! D192  D(26,24,30,34)         71.8011         calculate D2E/DX2 analytically  !
 ! D193  D(26,24,30,66)        -47.3806         calculate D2E/DX2 analytically  !
 ! D194  D(65,24,30,32)         75.3886         calculate D2E/DX2 analytically  !
 ! D195  D(65,24,30,34)        -45.1484         calculate D2E/DX2 analytically  !
 ! D196  D(65,24,30,66)       -164.3301         calculate D2E/DX2 analytically  !
 ! D197  D(23,25,27,20)          8.7457         calculate D2E/DX2 analytically  !
 ! D198  D(23,25,27,36)       -176.3434         calculate D2E/DX2 analytically  !
 ! D199  D(31,25,27,20)        139.0786         calculate D2E/DX2 analytically  !
 ! D200  D(31,25,27,36)        -46.0105         calculate D2E/DX2 analytically  !
 ! D201  D(46,25,27,20)       -102.9604         calculate D2E/DX2 analytically  !
 ! D202  D(46,25,27,36)         71.9505         calculate D2E/DX2 analytically  !
 ! D203  D(23,25,31,33)        -39.7026         calculate D2E/DX2 analytically  !
 ! D204  D(23,25,31,35)       -160.2054         calculate D2E/DX2 analytically  !
 ! D205  D(23,25,31,47)         80.6537         calculate D2E/DX2 analytically  !
 ! D206  D(27,25,31,33)       -166.5266         calculate D2E/DX2 analytically  !
 ! D207  D(27,25,31,35)         72.9706         calculate D2E/DX2 analytically  !
 ! D208  D(27,25,31,47)        -46.1703         calculate D2E/DX2 analytically  !
 ! D209  D(46,25,31,33)         76.5502         calculate D2E/DX2 analytically  !
 ! D210  D(46,25,31,35)        -43.9526         calculate D2E/DX2 analytically  !
 ! D211  D(46,25,31,47)       -163.0934         calculate D2E/DX2 analytically  !
 ! D212  D(20,27,36,37)          0.9707         calculate D2E/DX2 analytically  !
 ! D213  D(25,27,36,37)       -173.8854         calculate D2E/DX2 analytically  !
 ! D214  D(24,30,32,70)        -59.6288         calculate D2E/DX2 analytically  !
 ! D215  D(24,30,32,71)         62.6288         calculate D2E/DX2 analytically  !
 ! D216  D(24,30,32,72)       -177.579          calculate D2E/DX2 analytically  !
 ! D217  D(34,30,32,70)         62.5593         calculate D2E/DX2 analytically  !
 ! D218  D(34,30,32,71)       -175.1831         calculate D2E/DX2 analytically  !
 ! D219  D(34,30,32,72)        -55.3908         calculate D2E/DX2 analytically  !
 ! D220  D(66,30,32,70)       -179.7451         calculate D2E/DX2 analytically  !
 ! D221  D(66,30,32,71)        -57.4875         calculate D2E/DX2 analytically  !
 ! D222  D(66,30,32,72)         62.3047         calculate D2E/DX2 analytically  !
 ! D223  D(24,30,34,67)        179.7912         calculate D2E/DX2 analytically  !
 ! D224  D(24,30,34,68)        -60.0017         calculate D2E/DX2 analytically  !
 ! D225  D(24,30,34,69)         61.8268         calculate D2E/DX2 analytically  !
 ! D226  D(32,30,34,67)         57.5442         calculate D2E/DX2 analytically  !
 ! D227  D(32,30,34,68)        177.7513         calculate D2E/DX2 analytically  !
 ! D228  D(32,30,34,69)        -60.4202         calculate D2E/DX2 analytically  !
 ! D229  D(66,30,34,67)        -60.6896         calculate D2E/DX2 analytically  !
 ! D230  D(66,30,34,68)         59.5175         calculate D2E/DX2 analytically  !
 ! D231  D(66,30,34,69)       -178.654          calculate D2E/DX2 analytically  !
 ! D232  D(25,31,33,51)       -176.8665         calculate D2E/DX2 analytically  !
 ! D233  D(25,31,33,52)        -58.9072         calculate D2E/DX2 analytically  !
 ! D234  D(25,31,33,53)         63.3636         calculate D2E/DX2 analytically  !
 ! D235  D(35,31,33,51)        -54.8988         calculate D2E/DX2 analytically  !
 ! D236  D(35,31,33,52)         63.0605         calculate D2E/DX2 analytically  !
 ! D237  D(35,31,33,53)       -174.6687         calculate D2E/DX2 analytically  !
 ! D238  D(47,31,33,51)         62.8473         calculate D2E/DX2 analytically  !
 ! D239  D(47,31,33,52)       -179.1934         calculate D2E/DX2 analytically  !
 ! D240  D(47,31,33,53)        -56.9225         calculate D2E/DX2 analytically  !
 ! D241  D(25,31,35,48)        -59.3004         calculate D2E/DX2 analytically  !
 ! D242  D(25,31,35,49)         62.3659         calculate D2E/DX2 analytically  !
 ! D243  D(25,31,35,50)       -179.5853         calculate D2E/DX2 analytically  !
 ! D244  D(33,31,35,48)        178.5771         calculate D2E/DX2 analytically  !
 ! D245  D(33,31,35,49)        -59.7566         calculate D2E/DX2 analytically  !
 ! D246  D(33,31,35,50)         58.2922         calculate D2E/DX2 analytically  !
 ! D247  D(47,31,35,48)         60.2845         calculate D2E/DX2 analytically  !
 ! D248  D(47,31,35,49)       -178.0493         calculate D2E/DX2 analytically  !
 ! D249  D(47,31,35,50)        -60.0005         calculate D2E/DX2 analytically  !
 ! D250  D(27,36,37,38)         51.1087         calculate D2E/DX2 analytically  !
 ! D251  D(27,36,37,40)        173.302          calculate D2E/DX2 analytically  !
 ! D252  D(27,36,37,54)        -69.1873         calculate D2E/DX2 analytically  !
 ! D253  D(36,37,38,19)         30.6789         calculate D2E/DX2 analytically  !
 ! D254  D(36,37,38,22)       -151.7693         calculate D2E/DX2 analytically  !
 ! D255  D(40,37,38,19)        -85.3067         calculate D2E/DX2 analytically  !
 ! D256  D(40,37,38,22)         92.2451         calculate D2E/DX2 analytically  !
 ! D257  D(54,37,38,19)        148.4077         calculate D2E/DX2 analytically  !
 ! D258  D(54,37,38,22)        -34.0405         calculate D2E/DX2 analytically  !
 ! D259  D(36,37,40,42)       -169.8977         calculate D2E/DX2 analytically  !
 ! D260  D(36,37,40,44)         65.974          calculate D2E/DX2 analytically  !
 ! D261  D(36,37,40,55)        -51.733          calculate D2E/DX2 analytically  !
 ! D262  D(38,37,40,42)        -50.4776         calculate D2E/DX2 analytically  !
 ! D263  D(38,37,40,44)       -174.6059         calculate D2E/DX2 analytically  !
 ! D264  D(38,37,40,55)         67.6871         calculate D2E/DX2 analytically  !
 ! D265  D(54,37,40,42)         75.6913         calculate D2E/DX2 analytically  !
 ! D266  D(54,37,40,44)        -48.437          calculate D2E/DX2 analytically  !
 ! D267  D(54,37,40,55)       -166.144          calculate D2E/DX2 analytically  !
 ! D268  D(37,40,42,59)        -64.2784         calculate D2E/DX2 analytically  !
 ! D269  D(37,40,42,60)         58.8997         calculate D2E/DX2 analytically  !
 ! D270  D(37,40,42,61)        177.9764         calculate D2E/DX2 analytically  !
 ! D271  D(44,40,42,59)         59.6306         calculate D2E/DX2 analytically  !
 ! D272  D(44,40,42,60)       -177.1912         calculate D2E/DX2 analytically  !
 ! D273  D(44,40,42,61)        -58.1146         calculate D2E/DX2 analytically  !
 ! D274  D(55,40,42,59)        179.166          calculate D2E/DX2 analytically  !
 ! D275  D(55,40,42,60)        -57.6558         calculate D2E/DX2 analytically  !
 ! D276  D(55,40,42,61)         61.4208         calculate D2E/DX2 analytically  !
 ! D277  D(37,40,44,56)       -174.7376         calculate D2E/DX2 analytically  !
 ! D278  D(37,40,44,57)        -54.8287         calculate D2E/DX2 analytically  !
 ! D279  D(37,40,44,58)         66.5321         calculate D2E/DX2 analytically  !
 ! D280  D(42,40,44,56)         59.292          calculate D2E/DX2 analytically  !
 ! D281  D(42,40,44,57)        179.2009         calculate D2E/DX2 analytically  !
 ! D282  D(42,40,44,58)        -59.4382         calculate D2E/DX2 analytically  !
 ! D283  D(55,40,44,56)        -59.5174         calculate D2E/DX2 analytically  !
 ! D284  D(55,40,44,57)         60.3915         calculate D2E/DX2 analytically  !
 ! D285  D(55,40,44,58)       -178.2476         calculate D2E/DX2 analytically  !
 ! D286  D(16,41,43,97)         58.3282         calculate D2E/DX2 analytically  !
 ! D287  D(16,41,43,98)        177.4013         calculate D2E/DX2 analytically  !
 ! D288  D(16,41,43,99)        -64.9528         calculate D2E/DX2 analytically  !
 ! D289  D(45,41,43,97)       -177.9106         calculate D2E/DX2 analytically  !
 ! D290  D(45,41,43,98)        -58.8375         calculate D2E/DX2 analytically  !
 ! D291  D(45,41,43,99)         58.8084         calculate D2E/DX2 analytically  !
 ! D292  D(93,41,43,97)        -58.4872         calculate D2E/DX2 analytically  !
 ! D293  D(93,41,43,98)         60.5859         calculate D2E/DX2 analytically  !
 ! D294  D(93,41,43,99)        178.2318         calculate D2E/DX2 analytically  !
 ! D295  D(16,41,45,94)         64.2157         calculate D2E/DX2 analytically  !
 ! D296  D(16,41,45,95)       -177.0327         calculate D2E/DX2 analytically  !
 ! D297  D(16,41,45,96)        -57.1128         calculate D2E/DX2 analytically  !
 ! D298  D(43,41,45,94)        -61.6118         calculate D2E/DX2 analytically  !
 ! D299  D(43,41,45,95)         57.1398         calculate D2E/DX2 analytically  !
 ! D300  D(43,41,45,96)        177.0597         calculate D2E/DX2 analytically  !
 ! D301  D(93,41,45,94)        179.6537         calculate D2E/DX2 analytically  !
 ! D302  D(93,41,45,95)        -61.5947         calculate D2E/DX2 analytically  !
 ! D303  D(93,41,45,96)         58.3253         calculate D2E/DX2 analytically  !
 --------------------------------------------------------------------------------
 Trust Radius=3.00D-01 FncErr=1.00D-07 GrdErr=1.00D-07
 Number of steps in this run=      2 maximum allowed number of steps=      2.
 GradGradGradGradGradGradGradGradGradGradGradGradGradGradGradGradGradGrad

 Symmetry turned off by external request.
 Stoichiometry    C33H57CaN3O9(2+)
 Framework group  C1[X(C33H57CaN3O9)]
 Deg. of freedom   303
 Full point group                 C1      NOp   1
                          Input orientation:                          
 ---------------------------------------------------------------------
 Center     Atomic      Atomic             Coordinates (Angstroms)
 Number     Number       Type             X           Y           Z
 ---------------------------------------------------------------------
      1          7           0       -3.043831   12.359595   12.371700
      2          6           0       -3.643842   13.582235   11.775493
      3          6           0       -2.812924   14.789718   12.275136
      4          8           0       -1.743435   14.638807   12.891911
      5          6           0       -3.387911   12.006820   13.769075
      6          6           0       -5.201870   13.682198   11.921447
      7          6           0       -5.875811   12.310563   11.713677
      8          6           0       -5.784797   14.668988   10.885161
      9          8           0       -3.271300   15.982395   11.907033
     10          6           0       -1.417278   10.463755   12.246503
     11          6           0       -1.973156   11.811958   11.738883
     12          8           0       -1.452192   12.359927   10.719394
     13          6           0       -2.037377    9.216314   11.550054
     14          6           0       -3.576704    9.220050   11.527314
     15          6           0       -1.518643    7.927436   12.218750
     16          6           0       -2.469938   17.183838   12.227892
     17          8           0        0.023946   10.366222   11.927203
     18          8           0       -0.806142   16.266105   10.705225
     19          8           0        2.220655   13.743832   10.695274
     20          8           0        1.317179   15.381941   12.879716
     21          8           0        0.429433   12.364646   12.903241
     22          7           0        3.051014   12.384698   12.347241
     23          7           0       -0.013600   17.647858   12.355605
     24          6           0        2.287237   11.242758   11.776356
     25          6           0        1.344190   17.554563   11.757614
     26          6           0        0.830298   11.360384   12.289260
     27          6           0        1.974728   16.230996   12.252849
     28          6           0        3.573536   12.275395   13.729765
     29          6           0       -0.145137   18.120838   13.753476
     30          6           0        2.989348    9.850072   11.933796
     31          6           0        2.211463   18.852927   11.902092
     32          6           0        4.505154    9.958545   11.671597
     33          6           0        1.355769   20.118220   11.690070
     34          6           0        2.400909    8.817321   10.946768
     35          6           0        3.360299   18.864227   10.868936
     36          8           0        3.231513   16.031315   11.865055
     37          6           0        3.880460   14.738199   12.168589
     38          6           0        2.977603   13.577475   11.700750
     39          6           0       -1.022436   16.992450   11.722718
     40          6           0        5.243000   14.819992   11.419258
     41          6           0       -3.239579   18.344119   11.532327
     42          6           0        6.004880   13.482835   11.381030
     43          6           0       -2.489668   19.688448   11.570429
     44          6           0        6.122418   15.919766   12.046568
     45          6           0       -4.639028   18.497168   12.161295
     46          1           0        1.177949   17.401144   10.673732
     47          1           0        2.655341   18.879993   12.916136
     48          1           0        4.038156   18.005214   10.965190
     49          1           0        2.956492   18.873149    9.839610
     50          1           0        3.954469   19.784002   11.001136
     51          1           0        2.007345   21.006789   11.742759
     52          1           0        0.887748   20.110780   10.688911
     53          1           0        0.562258   20.247976   12.442431
     54          1           0        4.028567   14.705966   13.259905
     55          1           0        4.989500   15.102172   10.379060
     56          1           0        7.046090   16.038866   11.455430
     57          1           0        5.616265   16.897983   12.079113
     58          1           0        6.416443   15.647742   13.077198
     59          1           0        6.302085   13.149909   12.391968
     60          1           0        5.432825   12.676041   10.894800
     61          1           0        6.934565   13.620792   10.804122
     62          1           0        4.656731   12.465091   13.769989
     63          1           0        3.039094   12.971699   14.395936
     64          1           0        3.396382   11.253844   14.089999
     65          1           0        2.221245   11.446387   10.689961
     66          1           0        2.824342    9.480067   12.963979
     67          1           0        2.920459    7.854070   11.083871
     68          1           0        1.325406    8.645336   11.088018
     69          1           0        2.567002    9.138923    9.901966
     70          1           0        4.700181   10.330883   10.649361
     71          1           0        5.033692   10.611246   12.383463
     72          1           0        4.956171    8.954824   11.748409
     73          1           0       -1.506366   10.394506   13.342726
     74          1           0       -1.677533    9.256661   10.503862
     75          1           0       -0.418210    7.880692   12.249454
     76          1           0       -1.898737    7.840493   13.253597
     77          1           0       -1.877016    7.048655   11.656658
     78          1           0       -4.002821    9.151295   12.544540
     79          1           0       -3.998689   10.104624   11.023547
     80          1           0       -3.923724    8.330341   10.975639
     81          1           0       -2.527169   12.193842   14.432098
     82          1           0       -4.220738   12.642744   14.095801
     83          1           0       -3.710860   10.958705   13.850924
     84          1           0       -5.592978   14.309623    9.856979
     85          1           0       -6.878211   14.727292   11.017817
     86          1           0       -5.376465   15.684711   10.976596
     87          1           0       -5.597185   11.558277   12.467929
     88          1           0       -6.970180   12.438552   11.767290
     89          1           0       -5.639695   11.903574   10.713720
     90          1           0       -5.445309   14.055372   12.935305
     91          1           0       -3.428173   13.518407   10.691126
     92          1           0       -2.490881   17.295849   13.324239
     93          1           0       -3.345802   18.037976   10.473501
     94          1           0       -4.562067   18.796963   13.222651
     95          1           0       -5.199347   19.284667   11.629679
     96          1           0       -5.229888   17.569059   12.107495
     97          1           0       -1.495205   19.640854   11.098292
     98          1           0       -3.080537   20.438246   11.018211
     99          1           0       -2.376842   20.068302   12.602145
    100          1           0        0.822087   18.525037   14.078719
    101          1           0       -0.891633   18.924227   13.839202
    102          1           0       -0.410452   17.280363   14.415243
    103         20           0       -0.007658   14.117960   11.295698
 ---------------------------------------------------------------------
 Rotational constants (GHZ):      0.0723150      0.0722905      0.0384834
 General basis read from cards:  (5D, 7F)
   780 basis functions,  1565 primitive gaussians,   828 cartesian basis functions
   183 alpha electrons      183 beta electrons
       nuclear repulsion energy      7500.3827975973 Hartrees.
 NAtoms=  103 NActive=  103 NUniq=  103 SFac= 1.00D+00 NAtFMM=   60 NAOKFM=T Big=T
 Integral buffers will be    131072 words long.
 Raffenetti 2 integral format.
 Two-electron integral symmetry is turned off.
 Force inversion solution in PCM.
 ------------------------------------------------------------------------------
 Polarizable Continuum Model (PCM)
 =================================
 Model                : PCM (using non-symmetric T matrix).
 Atomic radii         : UFF (Universal Force Field).
 Polarization charges : Total charges.
 Charge compensation  : None.
 Solution method      : Matrix inversion.
 Cavity type          : Scaled VdW (van der Waals Surface) (Alpha=1.100).
 Cavity algorithm     : GePol (No added spheres)
                        Default sphere list used, NSphG=  103.
                        Lebedev-Laikov grids with approx.  5.0 points / Ang**2.
                        Smoothing algorithm: Karplus/York (Gamma=1.0000).
                        Polarization charges: spherical gaussians, with
                                              point-specific exponents (IZeta= 3).
                        Self-potential: point-specific (ISelfS= 7).
                        Self-field    : sphere-specific E.n sum rule (ISelfD= 2).
 1st derivatives      : Analytical E(r).r(x)/FMM algorithm (CHGder, D1EAlg=3).
                        Cavity 1st derivative terms included.
 2nd derivatives      : Analytical E(r).r(xy)/FMM algorithm (CHGder, D2EAlg=3).
                        Cavity 2nd derivative terms included.
 Solvent              : n-Pentadecane, Eps=   2.033300 Eps(inf)=   2.049192
 ------------------------------------------------------------------------------
 One-electron integrals computed using PRISM.
 NBasis=   780 RedAO= T EigKep=  2.13D-03  NBF=   780
 NBsUse=   780 1.00D-06 EigRej= -1.00D+00 NBFU=   780
 Initial guess from the checkpoint file:  "nP_EB11Ca.chk"
 B after Tr=     0.000000    0.000000    0.000000
         Rot=    1.000000    0.000000    0.000000    0.000000 Ang=   0.00 deg.
 Requested convergence on RMS density matrix=1.00D-08 within 128 cycles.
 Requested convergence on MAX density matrix=1.00D-06.
 Requested convergence on             energy=1.00D-06.
 No special actions if energy rises.
 Inv3:  Mode=1 IEnd=    91510587.
 Iteration    1 A*A^-1 deviation from unit magnitude is 3.55D-15 for   2870.
 Iteration    1 A*A^-1 deviation from orthogonality  is 2.36D-15 for   2365   1869.
 Iteration    1 A^-1*A deviation from unit magnitude is 3.66D-15 for   4644.
 Iteration    1 A^-1*A deviation from orthogonality  is 2.68D-15 for   4781   4753.
 Error on total polarization charges =  0.00752
 SCF Done:  E(RB-P86) =  -2810.60089337     A.U. after    1 cycles
            NFock=  1  Conv=0.25D-08     -V/T= 2.0064
 QCSCF skips out because SCF is already converged.
 Range of M.O.s used for correlation:     1   780
 NBasis=   780 NAE=   183 NBE=   183 NFC=     0 NFV=     0
 NROrb=    780 NOA=   183 NOB=   183 NVA=   597 NVB=   597
 Symmetrizing basis deriv contribution to polar:
 IMax=3 JMax=2 DiffMx= 0.00D+00
 G2DrvN: will do   104 centers at a time, making    1 passes.
 Calling FoFCou, ICntrl=  3507 FMM=T I1Cent=   0 AccDes= 0.00D+00.
 NEqPCM:  Using equilibrium solvation (IEInf=0, Eps=   2.0333, EpsInf=   2.0492)
 G2PCM: DoFxE=T DoFxN=T DoGrad=T DoDP/DQ/DG/TGxP=FFFF NFrqRd=   0 IEInf=0 SqF1=F DoCFld=F IF1Alg=4.
 End of G2Drv F.D. properties file   721 does not exist.
 End of G2Drv F.D. properties file   722 does not exist.
 End of G2Drv F.D. properties file   788 does not exist.
          IDoAtm=11111111111111111111111111111111111111111111111111
          IDoAtm=11111111111111111111111111111111111111111111111111
          IDoAtm=111
 NEqPCM:  Using equilibrium solvation (IEInf=0, Eps=   2.0333, EpsInf=   2.0492)
          Differentiating once with respect to electric field.
                with respect to dipole field.
          Differentiating once with respect to nuclear coordinates.
 CalDSu exits because no D1Ps are significant.
          There are   312 degrees of freedom in the 1st order CPHF.  IDoFFX=6 NUNeed=     3.
    312 vectors produced by pass  0 Test12= 1.09D-13 1.00D-09 XBig12= 4.75D+02 4.04D+00.
 AX will form    72 AO Fock derivatives at one time.
    309 vectors produced by pass  1 Test12= 1.09D-13 1.00D-09 XBig12= 1.80D+02 1.64D+00.
    309 vectors produced by pass  2 Test12= 1.09D-13 1.00D-09 XBig12= 4.28D-01 3.94D-02.
    309 vectors produced by pass  3 Test12= 1.09D-13 1.00D-09 XBig12= 4.31D-04 1.09D-03.
    172 vectors produced by pass  4 Test12= 1.09D-13 1.00D-09 XBig12= 6.52D-08 1.33D-05.
     13 vectors produced by pass  5 Test12= 1.09D-13 1.00D-09 XBig12= 6.76D-12 1.08D-07.
      2 vectors produced by pass  6 Test12= 1.09D-13 1.00D-09 XBig12= 1.49D-15 1.64D-09.
 InvSVY:  IOpt=1 It=  1 EMax= 1.42D-14
 Solved reduced A of dimension  1426 with   312 vectors.
 Isotropic polarizability for W=    0.000000      479.63 Bohr**3.
 End of Minotr F.D. properties file   721 does not exist.
 End of Minotr F.D. properties file   722 does not exist.
 End of Minotr F.D. properties file   788 does not exist.

 **********************************************************************

            Population analysis using the SCF density.

 **********************************************************************

 Alpha  occ. eigenvalues -- -144.47226 -18.97576 -18.97575 -18.97545 -18.92576
 Alpha  occ. eigenvalues --  -18.92575 -18.92558 -18.91038 -18.91026 -18.90942
 Alpha  occ. eigenvalues --  -15.13461 -14.19348 -14.19295 -14.19225 -12.33519
 Alpha  occ. eigenvalues --  -12.33468 -12.33465 -10.17726 -10.17721 -10.17687
 Alpha  occ. eigenvalues --  -10.14984 -10.14962 -10.14893 -10.10355 -10.10347
 Alpha  occ. eigenvalues --  -10.10341 -10.08693 -10.08659 -10.08573 -10.05297
 Alpha  occ. eigenvalues --  -10.05246 -10.05204 -10.03113 -10.03102 -10.03057
 Alpha  occ. eigenvalues --  -10.02774 -10.02774 -10.02760  -9.99097  -9.99068
 Alpha  occ. eigenvalues --   -9.99067  -9.98870  -9.98859  -9.98827  -9.98540
 Alpha  occ. eigenvalues --   -9.98537  -9.98515  -9.98473  -9.98472  -9.98426
 Alpha  occ. eigenvalues --   -1.74991  -1.15437  -1.15370  -1.15348  -1.09666
 Alpha  occ. eigenvalues --   -1.09569  -1.08423  -1.07834  -1.07165  -1.07138
 Alpha  occ. eigenvalues --   -1.05526  -1.05151  -1.05132  -0.98677  -0.98543
 Alpha  occ. eigenvalues --   -0.98491  -0.86875  -0.85889  -0.85867  -0.83819
 Alpha  occ. eigenvalues --   -0.83789  -0.83067  -0.78597  -0.78357  -0.78342
 Alpha  occ. eigenvalues --   -0.76999  -0.76986  -0.76895  -0.75422  -0.75387
 Alpha  occ. eigenvalues --   -0.73054  -0.71115  -0.70882  -0.70862  -0.70777
 Alpha  occ. eigenvalues --   -0.70502  -0.70490  -0.68436  -0.65861  -0.65823
 Alpha  occ. eigenvalues --   -0.63450  -0.63441  -0.62878  -0.61677  -0.61654
 Alpha  occ. eigenvalues --   -0.61606  -0.60543  -0.60521  -0.60478  -0.59883
 Alpha  occ. eigenvalues --   -0.59861  -0.59068  -0.58157  -0.58146  -0.58111
 Alpha  occ. eigenvalues --   -0.57088  -0.55998  -0.55971  -0.55499  -0.55234
 Alpha  occ. eigenvalues --   -0.55180  -0.54341  -0.52731  -0.52719  -0.52697
 Alpha  occ. eigenvalues --   -0.52401  -0.52355  -0.50509  -0.50465  -0.50428
 Alpha  occ. eigenvalues --   -0.49852  -0.49832  -0.49562  -0.48400  -0.48366
 Alpha  occ. eigenvalues --   -0.48343  -0.47974  -0.47949  -0.47861  -0.47020
 Alpha  occ. eigenvalues --   -0.46983  -0.46842  -0.46672  -0.46663  -0.46605
 Alpha  occ. eigenvalues --   -0.45817  -0.45796  -0.45632  -0.45388  -0.45366
 Alpha  occ. eigenvalues --   -0.44638  -0.44179  -0.44174  -0.44162  -0.43858
 Alpha  occ. eigenvalues --   -0.43741  -0.43707  -0.42441  -0.42413  -0.42398
 Alpha  occ. eigenvalues --   -0.42308  -0.42287  -0.42253  -0.41619  -0.41595
 Alpha  occ. eigenvalues --   -0.41312  -0.40627  -0.40481  -0.40444  -0.40023
 Alpha  occ. eigenvalues --   -0.39882  -0.39851  -0.39637  -0.39402  -0.39395
 Alpha  occ. eigenvalues --   -0.38960  -0.38943  -0.38895  -0.38830  -0.38811
 Alpha  occ. eigenvalues --   -0.38727  -0.38454  -0.38435  -0.38283  -0.37268
 Alpha  occ. eigenvalues --   -0.37247  -0.36537  -0.35898  -0.35831  -0.35612
 Alpha  occ. eigenvalues --   -0.34743  -0.34676  -0.34531
 Alpha virt. eigenvalues --   -0.18333  -0.18295  -0.18271  -0.17092  -0.16742
 Alpha virt. eigenvalues --   -0.16695  -0.09975  -0.08672  -0.08644  -0.08279
 Alpha virt. eigenvalues --   -0.07800  -0.06984  -0.06931  -0.06028  -0.05893
 Alpha virt. eigenvalues --   -0.05890  -0.03717  -0.03611  -0.03494  -0.03285
 Alpha virt. eigenvalues --   -0.03254  -0.03023  -0.02988  -0.01936  -0.01833
 Alpha virt. eigenvalues --   -0.01821  -0.00853  -0.00781  -0.00753  -0.00724
 Alpha virt. eigenvalues --   -0.00494  -0.00384  -0.00324   0.00251   0.00270
 Alpha virt. eigenvalues --    0.00285   0.01065   0.01084   0.01296   0.01891
 Alpha virt. eigenvalues --    0.01898   0.01985   0.02482   0.02550   0.02599
 Alpha virt. eigenvalues --    0.02723   0.03211   0.03277   0.03705   0.03781
 Alpha virt. eigenvalues --    0.04354   0.04721   0.04796   0.04843   0.05101
 Alpha virt. eigenvalues --    0.05374   0.05405   0.05444   0.05622   0.05667
 Alpha virt. eigenvalues --    0.05981   0.06010   0.06214   0.06732   0.06821
 Alpha virt. eigenvalues --    0.06869   0.07261   0.07376   0.07414   0.07673
 Alpha virt. eigenvalues --    0.07954   0.08015   0.08222   0.08377   0.08440
 Alpha virt. eigenvalues --    0.08526   0.08939   0.08988   0.09093   0.09193
 Alpha virt. eigenvalues --    0.09677   0.09705   0.10048   0.10118   0.10142
 Alpha virt. eigenvalues --    0.10417   0.10596   0.10731   0.10922   0.10984
 Alpha virt. eigenvalues --    0.11173   0.11814   0.11876   0.12027   0.12474
 Alpha virt. eigenvalues --    0.12529   0.12981   0.13631   0.13865   0.13891
 Alpha virt. eigenvalues --    0.14086   0.14111   0.14682   0.15021   0.15337
 Alpha virt. eigenvalues --    0.15403   0.16037   0.16075   0.16877   0.17115
 Alpha virt. eigenvalues --    0.17298   0.17361   0.19474   0.19540   0.19797
 Alpha virt. eigenvalues --    0.20709   0.20729   0.22117   0.23832   0.24040
 Alpha virt. eigenvalues --    0.24150   0.26390   0.26423   0.26962   0.28975
[...]
 000232,0.00000053,0.00000206,-0.00000082,-0.00000325,0.00000271,0.0000
 0021,-0.00000046,-0.00000115,0.00000177,0.00000283,-0.00000419,0.00000
 576,0.00000031,0.00000301,0.00000086,-0.00000163,-0.00000080,-0.000000
 63,-0.00000007,0.00000107,-0.00000151,-0.00000046,0.00000144,0.0000012
 8,0.00000126,-0.00000173,0.00000025,0.00000053,-0.00000059,-0.00000020
 ,-0.00000004,-0.00000100,-0.00000121,0.00000105,-0.00000139,0.00000153
 ,-0.00000088,0.00000161,0.00000070,0.00000168,-0.00000067,-0.00000029,
 -0.00000006,0.00000089,-0.00000039,0.00000033,-0.00000104,0.00000007,0
 .00000040,-0.00000018,-0.00000093,-0.00000003,0.00000156,-0.00000053,0
 .00000034,-0.00000094,-0.00000114,-0.00000072,-0.00000035,-0.00000143,
 0.00000084,0.00000113,0.00000006,-0.00000190,-0.00000368,0.00000488,0.
 00000305,-0.00000030,0.00000416,0.00000236,0.00000173,0.00000005,0.000
 00056,-0.00000112,-0.00000158,0.00000297,-0.00000268,0.00000458,-0.000
 00442,-0.00000645,0.00000290,-0.00000325,0.00000013,0.00000070,0.00000
 665,0.00000875,0.00000259,-0.00000255,-0.00000191,-0.00000125,0.000005
 28,-0.00000087,-0.00000814,0.00001385,0.00001678,0.00000046,0.00034666
 ,0.00026675,0.00019594,0.00005950,0.00003405,-0.00000529,0.00000011,-0
 .00002009,-0.00000561,-0.00002582,-0.00000031,-0.00001098,0.00002361,0
 .00000447,-0.00000466,-0.00003062,-0.00001858,-0.00009597,0.00002799,0
 .00006501,0.00012153,-0.00009042,0.00012595,0.00017016,-0.00073336,-0.
 00752292,0.00547640,-0.00760553,-0.01516330,0.01138597,0.05300903,0.21
 687787,-0.00003322,0.00002859,0.00004068,0.00016910,-0.00003724,0.0000
 2180,-0.00066986,0.00033647,-0.00062070,0.00070563,0.00048913,0.001164
 30,-0.00000676,0.00000170,0.00000311,-0.00003067,0.00005297,0.00001877
 ,0.00002676,-0.00001596,-0.00000323,0.00000306,0.00000193,-0.00000992,
 0.00006869,-0.00022006,0.00047717,0.00000176,-0.00000684,0.00000533,0.
 00009437,-0.00000760,-0.00011967,-0.00008241,-0.00006468,0.00008496,-0
 .00000109,-0.00000110,-0.00000240,0.00000030,0.00000149,0.00000121,0.0
 0000019,0.00000055,0.00000147,0.00015095,0.00012916,-0.00062743,-0.000
 00812,0.00001128,0.00000204,0.00031634,-0.00302234,-0.00172198,0.00009
 275,0.00000138,0.00009746,-0.00041202,-0.00048346,0.00077463,-0.000007
 14,-0.00000631,0.00005416,0.00000929,-0.00001957,0.00002825,0.00626393
 ,0.01245542,-0.03118198,-0.00000065,0.00000660,0.00000041,-0.00249644,
 0.00099553,-0.00188416,0.00000536,-0.00000728,-0.00000152,0.00071054,0
 .00103262,-0.00056096,-0.00000162,-0.00000415,-0.00001030,0.03494094,0
 .11550989,-0.12764575,-0.00000058,-0.00000016,0.00000137,-0.00007082,-
 0.00037186,-0.00014274,0.00000023,0.00000040,-0.00000118,-0.00000441,-
 0.00017811,0.00004167,0.00000065,-0.00000012,-0.00000146,0.00009380,0.
 00016186,0.00008345,-0.00038060,-0.00024001,0.00012706,0.00005330,-0.0
 0007302,-0.00001604,-0.00001850,-0.00001964,-0.00011579,0.00482497,0.0
 0501317,0.00199618,0.00000653,-0.00000947,-0.00000406,-0.00011954,0.00
 000232,0.00030714,0.00000070,-0.00000050,0.00000077,0.00009717,-0.0000
 1898,-0.00003354,-0.00000336,-0.00000191,0.00000481,-0.00002217,0.0000
 6283,-0.00005633,0.00072365,-0.00038148,-0.00041004,0.00016009,0.00004
 658,0.00010602,-0.00002090,-0.00000270,0.00000773,-0.00003312,-0.00001
 996,0.00006471,0.00005272,0.00001791,-0.00001293,-0.00005446,0.0000237
 6,0.00009771,-0.00002685,-0.00003436,0.00010499,-0.00011629,0.00022648
 ,-0.00009115,0.00000647,0.00000861,0.00000458,-0.00000423,-0.00000066,
 0.00000337,-0.00000242,0.00000121,-0.00000092,0.00000133,0.00000336,-0
 .00000250,0.00000121,-0.00000052,0.00000123,0.00000059,-0.00000043,0.0
 0000111,-0.00000016,0.00000212,-0.00000056,-0.00000063,0.00000011,-0.0
 0000058,0.00000038,0.00000103,0.00000246,0.00000479,-0.00000443,0.0000
 0730,-0.00000013,0.00000096,0.00000253,-0.00000333,0.00000382,-0.00000
 056,0.00000046,-0.00000084,0.00000085,0.00000024,-0.00000031,0.0000005
 8,0.00000027,-0.00000005,-0.00000057,-0.00000080,0.,0.00000111,-0.0000
 0041,0.00000010,0.00000065,0.00000023,0.00000027,0.00000020,-0.0000001
 8,-0.00000030,0.00000021,0.00000144,-0.00000337,0.00000142,-0.00000029
 ,0.00000178,0.00000146,-0.00000026,0.00000013,-0.00000043,-0.00000011,
 -0.00000024,0.00000042,-0.00000005,0.00000043,-0.00000049,-0.00000031,
 -0.00000114,0.00000109,0.00000049,-0.00000072,-0.00000191,-0.00000029,
 0.00000099,-0.00000015,-0.00000109,-0.00000931,0.00000716,-0.00000296,
 -0.00000326,0.00000387,0.00000164,0.00000135,0.00000190,0.00000245,0.0
 0000472,0.00000370,0.00000288,0.,0.00000515,-0.00000768,0.00000112,-0.
 00000607,-0.00000166,0.00000026,-0.00000025,0.00000585,0.00000984,0.00
 000184,-0.00000136,0.00000154,0.00000180,-0.00000155,-0.00000301,0.000
 00035,0.00001985,0.00001913,-0.00000694,-0.00027715,0.00008060,0.00002
 192,0.00007754,-0.00005360,0.00005818,-0.00001158,0.00000093,0.0000064
 1,-0.00002550,-0.00000871,0.00001968,-0.00000807,-0.00000226,0.0000003
 1,-0.00002858,-0.00011099,0.00000769,-0.00001061,0.00001378,0.00003916
 ,-0.00008397,0.00005786,0.00002899,-0.00139566,-0.00723069,0.00691780,
 -0.00110699,-0.00089143,0.00252805,-0.04194598,-0.12369966,0.15056025,
 0.00259515,0.00078225,-0.00202469,-0.00005227,-0.00099148,0.00098213,-
 0.02339620,0.00952665,-0.00172128,-0.00251534,0.00094548,0.01045690,-0
 .00073035,-0.00057932,0.00164850,-0.00199083,0.00083243,0.00009061,0.0
 0074403,-0.00058924,-0.00017583,0.00041750,0.00018221,-0.00028609,0.00
 209386,-0.00795638,0.00276288,0.00420452,0.00032244,-0.00104932,-0.006
 54054,-0.01205090,0.01122148,-0.01578790,-0.00490303,-0.01178779,-0.00
 106269,-0.00029347,-0.00086538,0.00013944,-0.00013549,0.00019997,0.000
 45143,0.00019142,0.00043810,0.00144607,0.00373059,0.00116728,-0.006409
 55,-0.00307353,-0.00248892,-0.00711555,0.00232079,-0.00598534,-0.01613
 272,0.00180366,0.01940880,-0.00419900,0.00175357,-0.00729594,-0.004065
 70,0.00003883,-0.00302697,0.00198561,-0.00791583,0.00490701,-0.0053707
 7,-0.00315722,-0.00277574,0.00132983,0.00282458,0.00283999,0.00384808,
 -0.00024353,-0.00394340,0.00589500,0.00803187,0.00153989,-0.00709128,-
 0.01370792,0.00342797,-0.00167605,-0.00008851,-0.00187889,-0.00078932,
 0.00059950,0.00025779,-0.00080482,0.00070136,-0.00030591,-0.00148348,-
 0.00026083,0.00020370,-0.00000586,-0.00029865,0.00016991,0.00057910,0.
 00019965,0.00000182,0.00059855,-0.00024293,0.00035267,0.00011816,-0.00
 016512,-0.00005194,0.00199056,0.00186879,-0.00016695,-0.00010043,-0.00
 040353,-0.00017124,-0.02043620,0.00759329,-0.01927000,0.00402985,0.009
 51366,0.00856615,-0.00131172,0.00055683,0.00127863,-0.00044934,0.00039
 443,-0.00042381,0.00019787,0.00026172,-0.00032780,0.00051134,0.0000193
 6,0.00018363,0.00053669,-0.00028769,-0.00077303,0.00006548,-0.00014776
 ,0.00037222,-0.00003376,0.00042773,0.00041391,0.00009418,0.00000189,0.
 00001316,-0.00038351,-0.00013768,0.00009892,-0.00002567,-0.00003748,0.
 00001019,-0.00007302,0.00016548,0.00005620,-0.00021786,0.00018095,-0.0
 0002976,0.00000980,0.00001733,-0.00013848,-0.00012089,0.00016860,0.000
 17410,0.00034078,0.00052378,0.00026190,-0.00003085,-0.00005764,0.00005
 993,0.00031843,0.00020646,0.00011185,-0.00014451,-0.00005161,0.0000649
 6,-0.00002539,-0.00000467,0.00008704,-0.00010454,-0.00007400,0.0001043
 6,-0.00021201,0.00022161,0.00026717,0.00027628,-0.00001612,-0.00003215
 ,0.00025756,0.00005474,0.00036329,0.00013856,0.00012509,0.00045323,0.0
 0020729,-0.00019193,0.00047894,-0.00087243,0.00154040,0.00031138,0.000
 24262,-0.00029274,0.00015513,-0.00007915,-0.00024805,-0.00017173,-0.00
 013317,-0.00003497,-0.00005305,-0.00004730,0.00006683,-0.00000294,-0.0
 0006498,0.00013164,0.00008633,-0.00025335,0.00010453,-0.00013586,0.000
 08582,-0.00021651,-0.00005741,-0.00072327,0.00059111,-0.00021490,0.000
 11554,-0.00010961,0.00011546,-0.00017339,0.00011324,-0.00007489,-0.000
 04698,-0.00001712,-0.00000343,-0.00009490,0.00019089,-0.00010630,-0.00
 006765,-0.00012639,0.00002108,-0.00027083,0.00000230,-0.00025898,-0.00
 006948,0.00015827,0.00001340,0.00008159,-0.00014248,-0.00031974,0.0000
 0058,-0.00001340,-0.00018106,0.00022667,0.00025231,-0.00033968,-0.0001
 1602,-0.00001045,-0.00002598,0.00027559,-0.00005126,0.00011963,-0.0003
 5710,0.00012171,-0.00002422,-0.00017264,0.00003107,-0.00002852,0.00028
 947,0.00025785,0.00009196,-0.00013418,-0.00001582,0.00003583,0.0004047
 6,-0.00001999,-0.00008883,-0.00147320,0.00022929,-0.00082855,-0.000242
 47,-0.00032496,-0.00003609,0.00004730,0.00005369,-0.00010146,-0.000027
 43,-0.00002101,-0.00008449,0.00013702,-0.00016490,-0.00002252,-0.00028
 462,0.00000444,-0.00003476,-0.00006750,0.00008881,0.00001143,-0.000050
 51,-0.00023288,-0.00000159,-0.00005223,-0.00003983,-0.00012463,-0.0000
 4278,-0.00027532,-0.00029626,0.00004730,0.00011008,0.00000693,0.000405
 93,-0.00000778,-0.00015630,0.09902627,0.00760797,-0.00307204,-0.004339
 37,-0.00201000,0.00342785,-0.00398792,0.00798155,0.00517160,0.00108715
 ,-0.00074564,-0.00440993,-0.00251840,-0.00051448,-0.00138895,0.0011991
 8,0.00001547,-0.00086333,0.00030145,-0.00013491,0.00013962,-0.00008605
 ,0.00034439,0.00031861,-0.00024595,-0.00182311,-0.00347013,0.00131406,
 -0.00208424,-0.00051240,0.00082099,-0.01544222,-0.00838409,0.01603376,
 -0.00542440,-0.01345182,-0.01430842,-0.00073299,-0.00083784,-0.0009513
 8,-0.00022648,0.00042069,0.00027405,0.00033033,0.00026409,0.00063232,0
 .00125092,0.00212803,0.00049906,0.00296290,0.00472101,0.00153205,0.001
 42637,-0.01351841,0.01512635,0.00258170,-0.00636175,-0.00035704,0.0002
 1915,-0.00270690,-0.00758206,-0.00165640,-0.00320020,0.01011455,-0.001
 05681,-0.00261917,0.00056039,0.00388198,0.00496776,0.00399184,0.001822
 73,0.00217160,0.00279517,-0.00129901,-0.00043658,0.00112956,0.00601527
 ,-0.01973446,-0.00549524,-0.01486347,-0.00709289,0.00247275,0.00003001
 ,-0.00035907,0.00080801,0.00058462,-0.00138667,-0.00207017,-0.00012834
 ,-0.00203641,-0.00003080,-0.00115315,-0.00136380,-0.00023990,0.0001289
 7,0.00087211,-0.00012696,0.00070159,0.00031194,0.00018911,-0.00010546,
 0.00018052,-0.00015545,-0.00002613,0.00063998,0.00039794,0.00797661,-0
 .00349724,-0.00317504,-0.00285335,0.00377495,-0.00120944,0.00410122,0.
 00506906,0.00109190,0.00578598,-0.01887841,-0.01791749,0.00008774,-0.0
 0056220,-0.00023669,-0.00009463,-0.00146140,0.00119176,0.00017866,0.00
 037939,0.00000283,-0.00008386,0.00006897,-0.00031329,-0.00011095,0.000
 16689,0.00004362,0.00004544,0.00067155,-0.00066791,-0.00099148,-0.0013
 6489,0.00050999,0.00017941,0.00038627,0.00017147,-0.00013262,-0.000202
 15,-0.00000317,-0.00004746,-0.00009751,-0.00000003,0.00024222,0.000169
 07,-0.00018249,0.00004817,0.00031978,-0.00007822,-0.00010548,-0.000121
 30,0.00002984,-0.00005053,-0.00020589,-0.00008351,0.00002883,-0.000745
 73,-0.00009355,0.00002312,0.00013033,0.00014187,0.00005522,-0.00008138
 ,-0.00005204,-0.00010697,-0.00027265,-0.00004561,0.00000965,-0.0000295
 7,0.00004770,0.00009624,-0.00005522,0.00007562,-0.00000323,-0.00014275
 ,-0.00014992,0.00004698,-0.00017461,0.00000600,-0.00021022,0.00008905,
 -0.00017227,0.00016499,0.00025178,-0.00011628,0.00010091,-0.00012156,0
 .00009072,0.00033639,-0.00079167,-0.00068897,-0.00010955,0.00030587,-0
 .00010409,-0.00016277,0.00015457,0.00004159,0.00002198,-0.00043371,-0.
 00003946,0.00006192,-0.00009471,-0.00001834,0.00003191,-0.00005025,0.0
 0010205,-0.00010059,-0.00008634,-0.00011299,-0.00035287,0.00001283,0.0
 0007763,0.00003165,0.00027890,-0.00017373,-0.00002195,-0.00003454,-0.0
 0007675,0.00005528,-0.00022090,-0.00003054,-0.00001214,-0.00005053,-0.
 00008368,0.00002997,0.00032930,-0.00007779,0.00006866,-0.00009775,-0.0
 0013291,-0.00018121,-0.00010531,-0.00012242,0.00021668,0.00016656,0.00
 000834,-0.00010339,0.00034308,-0.00036908,0.00030500,0.00010617,-0.000
 45412,0.00000303,0.00012757,-0.00020291,-0.00001599,-0.00001093,-0.000
 01178,0.00003161,-0.00018925,0.00013164,0.00015045,-0.00021547,0.00009
 191,-0.00020536,-0.00019011,0.00017905,0.00009451,-0.00018153,0.000015
 14,-0.00012227,-0.00001281,-0.00013999,0.00017323,0.00007839,-0.000070
 83,-0.00100627,-0.00002906,0.00010666,-0.00082250,-0.00020840,0.000243
 94,0.00016154,-0.00000697,-0.00000746,-0.00000371,0.00001907,0.0000742
 4,-0.00033751,0.00008838,0.00012647,-0.00005277,-0.00011246,0.00005819
 ,-0.00009463,-0.00036811,0.00029078,-0.00016219,0.00015388,-0.00002492
 ,0.00009980,-0.00011796,0.00005699,0.00006481,0.00014025,0.00038157,-0
 .00014643,0.00027116,0.00036932,-0.00005510,-0.00005428,0.00044875,-0.
 00070850,0.08909586,0.00345861,-0.00072207,-0.00311208,-0.00134978,0.0
 0145089,-0.00107946,0.01442751,-0.00546522,0.00817539,0.00310784,-0.00
 210014,-0.01293537,0.00018202,-0.00034598,0.00035549,0.00063939,-0.000
 70319,-0.00026852,-0.00035246,0.00022443,0.00009068,-0.00000296,0.0000
 2646,0.00020342,-0.00360191,0.00656064,-0.00359517,0.00304341,0.000940
 77,-0.00080368,-0.00313626,-0.00035492,0.00942397,-0.00303999,-0.00373
 748,-0.01211240,-0.00021240,0.00023819,0.00003634,0.00005693,-0.000260
 64,-0.00005787,0.00008302,-0.00003441,-0.00007749,-0.00070651,-0.00305
 201,-0.00076205,-0.00392137,-0.00640891,-0.00362029,0.00188928,0.00247
 319,-0.00423025,0.00632122,0.00028188,-0.01014635,-0.00305165,-0.00156
 246,-0.01266289,0.00032300,0.00351052,-0.01279655,-0.00114942,0.003426
 47,-0.00320287,-0.00224703,-0.00251383,-0.00299583,-0.00063891,-0.0019
 5340,-0.00109461,0.00186126,0.00045715,-0.00108849,-0.00239342,0.01386
 684,0.01102201,-0.01187260,-0.00945303,0.00973035,0.00020869,0.0003405
 4,0.00032582,-0.00040128,0.00002236,0.00034360,0.00028053,0.00092083,-
 0.00029472,-0.00092401,-0.00021904,-0.00025983,-0.00001624,-0.00041523
 ,0.00010769,0.00036660,0.00019548,0.00008731,-0.00002632,-0.00002925,0
 .00022041,0.00002500,0.00000693,0.00019813,0.00743766,-0.00022685,-0.0
 0374125,-0.00237257,0.00217598,-0.00076191,0.00228870,-0.00257535,0.00
 966503,0.00116924,0.00277087,0.00909044,-0.00007188,-0.00031096,0.0000
 3981,0.00030647,0.00005292,0.00005080,0.00019530,0.00017765,-0.0000686
 9,-0.00024629,0.00007077,-0.00007195,-0.00001394,0.00009598,-0.0000717
 5,-0.00005441,-0.00004403,-0.00009919,-0.00007891,0.00102801,0.0001630
 9,-0.00000649,-0.00007426,-0.00004167,-0.00009546,-0.00009445,0.000112
 67,-0.00006058,0.00010229,-0.00011248,0.00001018,0.00004518,-0.0000867
 1,-0.00008197,0.00013576,-0.00002364,-0.00004324,0.00001380,-0.0000499
 4,-0.00000837,-0.00000492,-0.00000470,-0.00029265,-0.00066849,-0.00020
 820,0.00012551,0.00012414,-0.00006654,0.00006067,-0.00004907,-0.000000
 56,-0.00006204,-0.00012668,0.00002826,-0.00003464,-0.00001329,-0.00002
 174,-0.00003921,-0.00001791,-0.00004503,0.00000125,-0.00009731,0.00003
 744,0.00006668,-0.00005278,0.00000156,-0.00003523,-0.00005476,-0.00013
 609,-0.00029737,-0.00001771,-0.00055893,-0.00011085,0.00003689,-0.0002
 1403,0.00100142,-0.00055268,0.00010672,-0.00005420,0.00001955,-0.00004
 658,0.00003736,-0.00002902,-0.00008532,-0.00003963,0.00014002,0.000090
 93,0.00010576,0.00000273,-0.00012751,0.00003194,0.00002050,-0.00006568
 ,0.00000758,0.00000587,0.00000028,0.00016298,0.00000731,-0.00003019,-0
 .00040067,0.00057415,-0.00021350,0.00004360,-0.00017345,-0.00006643,-0
 .00006866,0.00010926,0.00002926,0.00000878,0.00004031,-0.00002527,-0.0
 0007264,-0.00003348,0.00000046,0.00000092,0.00004109,-0.00004156,-0.00
 007477,0.00004786,0.00003344,-0.00007917,-0.00003139,0.00000335,0.0001
 8720,0.00021019,-0.00063677,0.00006966,0.00008338,-0.00020646,-0.00004
 691,0.00004786,-0.00012666,-0.00005216,-0.00009903,-0.00010861,-0.0000
 4259,-0.00001204,-0.00008499,0.00013642,-0.00003671,0.00010381,0.00001
 335,-0.00000616,-0.00000154,-0.00007787,-0.00014424,-0.00002450,0.0000
 1092,-0.00005356,-0.00006437,0.00008057,0.00003381,-0.00007483,-0.0010
 7053,-0.00053263,0.00010348,0.00069173,0.00007227,-0.00021170,-0.00015
 332,0.00005061,-0.00007716,0.00002901,-0.00001685,-0.00001726,0.000005
 59,0.00008120,0.00000692,0.00012628,0.00000372,0.00005117,0.00006928,0
 .00003749,0.00003868,0.00001001,0.00008550,0.00000327,0.00002914,-0.00
 002877,-0.00003775,0.00003965,-0.00009634,-0.00019775,0.00006189,0.000
 01246,-0.00012916,0.00008157,-0.00034205,-0.00066693,-0.00569488,0.002
 44751,0.03686874\\0.,-0.00000034,-0.00000021,0.,-0.00000018,0.00000053
 ,0.00000015,-0.00000010,0.00000061,0.00000006,-0.00000066,0.00000031,0
 .00000051,-0.00000083,0.,0.,-0.00000027,0.00000066,0.00000007,-0.00000
 022,0.00000025,-0.00000025,0.00000006,0.00000105,-0.00000003,-0.000000
 10,0.00000127,0.00000026,-0.00000014,-0.00000112,0.00000025,-0.0000000
 3,-0.00000082,-0.00000014,0.00000043,-0.00000033,0.00000014,-0.0000000
 6,-0.00000154,0.00000020,-0.00000010,-0.00000124,0.00000037,-0.0000001
 6,-0.00000205,-0.00000036,-0.00000048,0.00000148,-0.00000002,-0.000000
 17,-0.00000148,-0.00000038,0.00000042,0.00000130,-0.00000037,0.0000004
 3,-0.00000090,0.00000027,-0.00000015,0.00000022,0.00000026,-0.00000027
 ,-0.00000081,0.00000013,0.00000007,-0.00000109,-0.00000031,-0.00000016
 ,0.00000125,0.00000005,0.00000023,-0.00000139,-0.00000010,0.00000020,0
 .00000121,0.00000051,0.00000018,-0.00000110,-0.00000045,-0.00000005,0.
 00000055,0.00000034,-0.00000042,-0.00000139,0.00000012,-0.00000058,0.0
 0000131,0.00000038,0.00000013,-0.00000213,-0.00000039,0.00000006,0.000
 00139,0.00000028,0.00000033,-0.00000223,-0.00000041,0.00000029,0.00000
 192,0.00000021,0.00000050,-0.00000230,-0.00000045,0.00000061,0.0000012
 7,0.00000004,0.00000026,0.00000015,0.00000013,-0.00000009,-0.00000028,
 0.00000025,0.00000016,-0.00000032,-0.00000016,0.00000003,0.00000113,-0
 .00000015,0.00000046,-0.00000063,-0.00000023,0.00000023,0.00000205,-0.
 00000012,0.00000051,-0.00000117,-0.00000040,-0.00000007,0.00000255,-0.
 00000011,0.00000028,-0.00000030,-0.00000014,-0.00000038,0.00000245,-0.
 00000038,0.00000061,0.00000098,-0.00000007,-0.00000018,0.00000135,-0.0
 0000040,0.00000057,0.00000084,-0.00000062,0.00000097,0.00000125,-0.000
 00044,0.00000060,0.00000149,-0.00000043,0.00000016,0.00000224,-0.00000
 053,0.00000056,0.00000214,-0.00000027,-0.00000020,0.00000224,0.0000001
 5,-0.00000021,-0.00000044,-0.00000030,0.00000090,-0.00000044,-0.000000
 19,0.00000062,-0.00000042,-0.00000011,0.00000032,0.00000016,0.00000008
 ,-0.00000004,-0.00000043,0.00000013,0.00000024,-0.00000138,-0.00000008
 ,0.00000078,-0.00000138,-0.00000015,0.00000084,-0.00000126,0.00000036,
 -0.00000041,-0.00000136,0.00000049,-0.00000075,-0.00000089,0.00000048,
 -0.00000055,-0.00000159,-0.00000010,0.00000066,-0.00000135,0.00000040,
 -0.00000020,-0.00000219,0.00000024,0.00000051,-0.00000281,0.00000020,0
 .00000038,-0.00000226,-0.00000005,0.00000092,-0.00000228,-0.00000004,0
 .00000077,-0.00000214,0.00000019,0.00000006,-0.00000216,0.00000023,0.0
 0000037,-0.00000274,0.00000038,-0.00000057,-0.00000111,0.00000005,0.00
 000046,-0.00000155,0.00000046,-0.00000010,-0.00000226,0.00000058,-0.00
 000059,-0.00000205,0.00000037,0.,-0.00000235,0.00000037,-0.00000044,-0
 .00000125,0.00000005,0.00000019,-0.00000089,0.00000021,0.00000016,-0.0
 0000154,0.00000047,-0.00000107,-0.00000041,0.00000040,-0.00000113,0.00
 000006,0.00000047,-0.00000088,-0.00000066,-0.00000036,0.00000049,0.000
 00095,-0.00000018,-0.00000003,0.00000130,-0.00000024,0.00000004,0.0000
 0144,0.00000026,-0.00000059,-0.00000009,0.00000009,-0.00000030,0.00000
 048,-0.00000008,0.00000005,0.00000003,0.00000014,-0.00000065,0.0000008
 8,-0.00000018,0.00000033,0.00000041,0.00000005,-0.00000067,0.00000158,
 -0.00000045,0.00000027,0.00000198,-0.00000008,-0.00000075,0.00000243,-
 0.00000037,-0.00000017,0.00000273,-0.00000022,-0.00000033,0.00000211,-
 0.00000048,0.00000025,0.00000230,-0.00000053,0.00000018,0.00000283,-0.
 00000024,-0.00000037,0.00000259,0.00000005,-0.00000073,0.00000155,0.,-
 0.00000084,0.00000198,0.00000019,-0.00000098,0.00000132,0.,0.00000060,
 0.00000004\\\@


 NOTHING RESEMBLES A NEW PHENOMENON AS MUCH AS A MISTAKE.

                               -- ENRICO FERMI (?)
 Job cpu time:       0 days 22 hours 59 minutes 28.2 seconds.
 File lengths (MBytes):  RWF=   7535 Int=      0 D2E=      0 Chk=     71 Scr=      1
 Normal termination of Gaussian 09 at Tue Oct 30 20:49:25 2018.
