 Entering Gaussian System, Link 0=g09
 Input=/net/work/kozuch/EnniatinDef2TZVP/nP_EB11Li/Freq/nP_EB11Li.com
 Output=/net/work/kozuch/EnniatinDef2TZVP/nP_EB11Li/Freq/nP_EB11Li.log
 Initial command:
 /afs/math/software/gaussian/g09.D01/opt/@sys/l1.exe "/scratch/kozuch_g09.G1Zi7W1/Gau-5333.inp" -scrdir="/scratch/kozuch_g09.G1Zi7W1/"
 Entering Link 1 = /afs/math/software/gaussian/g09.D01/opt/@sys/l1.exe PID=      5334.
  
 Copyright (c) 1988,1990,1992,1993,1995,1998,2003,2009,2013,
            Gaussian, Inc.  All Rights Reserved.
  
 This is part of the Gaussian(R) 09 program.  It is based on
 the Gaussian(R) 03 system (copyright 2003, Gaussian, Inc.),
 the Gaussian(R) 98 system (copyright 1998, Gaussian, Inc.),
 the Gaussian(R) 94 system (copyright 1995, Gaussian, Inc.),
 the Gaussian 92(TM) system (copyright 1992, Gaussian, Inc.),
 the Gaussian 90(TM) system (copyright 1990, Gaussian, Inc.),
 the Gaussian 88(TM) system (copyright 1988, Gaussian, Inc.),
 the Gaussian 86(TM) system (copyright 1986, Carnegie Mellon
 University), and the Gaussian 82(TM) system (copyright 1983,
 Carnegie Mellon University). Gaussian is a federally registered
 trademark of Gaussian, Inc.
  
 This software contains proprietary and confidential information,
 including trade secrets, belonging to Gaussian, Inc.
  
 This software is provided under written license and may be
 used, copied, transmitted, or stored only in accord with that
 written license.
  
 The following legend is applicable only to US Government
 contracts under FAR:
  
                    RESTRICTED RIGHTS LEGEND
  
 Use, reproduction and disclosure by the US Government is
 subject to restrictions as set forth in subparagraphs (a)
 and (c) of the Commercial Computer Software - Restricted
 Rights clause in FAR 52.227-19.
  
 Gaussian, Inc.
 340 Quinnipiac St., Bldg. 40, Wallingford CT 06492
  
  
 ---------------------------------------------------------------
 Warning -- This program may not be used in any manner that
 competes with the business of Gaussian, Inc. or will provide
 assistance to any competitor of Gaussian, Inc.  The licensee
 of this program is prohibited from giving any competitor of
 Gaussian, Inc. access to this program.  By using this program,
 the user acknowledges that Gaussian, Inc. is engaged in the
 business of creating and licensing software in the field of
 computational chemistry and represents and warrants to the
 licensee that it is not a competitor of Gaussian, Inc. and that
 it will not use this program in any manner prohibited above.
 ---------------------------------------------------------------
  

 Cite this work as:
 Gaussian 09, Revision D.01,
 M. J. Frisch, G. W. Trucks, H. B. Schlegel, G. E. Scuseria, 
 M. A. Robb, J. R. Cheeseman, G. Scalmani, V. Barone, B. Mennucci, 
 G. A. Petersson, H. Nakatsuji, M. Caricato, X. Li, H. P. Hratchian, 
 A. F. Izmaylov, J. Bloino, G. Zheng, J. L. Sonnenberg, M. Hada, 
 M. Ehara, K. Toyota, R. Fukuda, J. Hasegawa, M. Ishida, T. Nakajima, 
 Y. Honda, O. Kitao, H. Nakai, T. Vreven, J. A. Montgomery, Jr., 
 J. E. Peralta, F. Ogliaro, M. Bearpark, J. J. Heyd, E. Brothers, 
 K. N. Kudin, V. N. Staroverov, T. Keith, R. Kobayashi, J. Normand, 
 K. Raghavachari, A. Rendell, J. C. Burant, S. S. Iyengar, J. Tomasi, 
 M. Cossi, N. Rega, J. M. Millam, M. Klene, J. E. Knox, J. B. Cross, 
 V. Bakken, C. Adamo, J. Jaramillo, R. Gomperts, R. E. Stratmann, 
 O. Yazyev, A. J. Austin, R. Cammi, C. Pomelli, J. W. Ochterski, 
 R. L. Martin, K. Morokuma, V. G. Zakrzewski, G. A. Voth, 
 P. Salvador, J. J. Dannenberg, S. Dapprich, A. D. Daniels, 
 O. Farkas, J. B. Foresman, J. V. Ortiz, J. Cioslowski, 
 and D. J. Fox, Gaussian, Inc., Wallingford CT, 2013.
 
 ******************************************
 Gaussian 09:  ES64L-G09RevD.01 24-Apr-2013
                31-Oct-2018 
 ******************************************
 %chk=nP_EB11Li.chk
 %mem=4GB
 ----------------------------------------------------------------------
 # bp86/gen freq int=ultrafine geom=checkpoint guess=checkpoint nosymm 
 scf=(xqc,maxconventionalcycles=128) scrf=(solvent=n-Pentadecane)
 ----------------------------------------------------------------------
 1/10=4,29=2,30=1,38=1/1,3;
 2/12=2,15=1,40=1/2;
 3/5=7,11=2,14=-4,16=1,25=1,30=1,70=2201,71=2,72=151,74=404,75=-5,116=-2,140=1/1,2,3;
 4/5=1/1;
 5/5=2,8=3,13=1,38=6,53=151,85=128,98=1/2,8;
 8/6=4,10=90,11=11/1;
 11/6=1,8=1,9=11,15=111,16=1,31=1/1,2,10;
 10/6=1,31=1/2;
 6/7=2,8=2,9=2,10=2,18=1,28=1/1;
 7/8=1,10=1,25=1,30=1/1,2,3,16;
 1/10=4,30=1/3;
 99//99;
 ---------
 nP_EB11Li
 ---------
 Structure from the checkpoint file:  "nP_EB11Li.chk"
 Charge =  1 Multiplicity = 1
 Redundant internal coordinates found in file.
 N,0,-3.0388270645,12.6432798573,12.6461270066
 C,0,-3.8783911151,13.6130735494,11.9035019412
 C,0,-3.3456813531,15.0249207274,12.2109202233
 O,0,-3.5038103348,15.6048595956,13.2812638295
 C,0,-2.9146554301,12.7886447565,14.1074323236
 C,0,-5.3980452368,13.52354712,12.2175860208
 C,0,-5.9262186518,12.0949030892,12.0083236356
 C,0,-6.1743884351,14.5295554202,11.3441678305
 O,0,-2.665402138,15.5527493976,11.1509025503
 C,0,-1.3343114395,10.8164748768,12.6906515678
 C,0,-2.3225236836,11.7203161414,11.9087142107
 O,0,-2.4505839025,11.5593556936,10.6868537195
 C,0,-1.8039486602,9.3441470279,12.7420773647
 C,0,-3.1833436352,9.2137840051,13.4154480092
 C,0,-0.7717884396,8.4444885424,13.4478015982
 C,0,-2.1436030183,16.9141433512,11.3239279334
 O,0,-0.0259237073,10.7719530363,12.0019710949
 O,0,0.0700066847,16.2914448159,10.6160249484
 O,0,2.4381514833,14.190133527,10.1659224908
 O,0,1.6894080059,15.193402014,13.4476907745
 O,0,-0.0121162917,12.978289997,11.432342045
 N,0,2.8323818506,12.5011507931,11.6675762211
 N,0,-0.0350953541,17.3331417424,12.6411203209
 C,0,1.9306527478,11.6198523653,10.8752731264
 C,0,1.4433444344,17.4886720204,12.5802598943
 C,0,0.5125654437,11.8561019186,11.4485911327
 C,0,2.1166814286,16.1126876758,12.7563546545
 C,0,3.2329274824,12.0844740448,13.0266798182
 C,0,-0.7218166043,17.4651813283,13.9403685761
 C,0,2.4030480447,10.1528412375,10.7342364157
 C,0,1.9579384365,18.5937677679,13.5531698507
 C,0,3.8973921351,10.0837947517,10.3649567454
 C,0,1.4170298125,19.9694926649,13.1133506341
 C,0,1.5547557533,9.4473177942,9.6531539928
 C,0,3.4966086114,18.6299782873,13.6260262863
 O,0,3.2438257903,16.0407490042,12.0002624007
 C,0,3.9277041966,14.7488452726,11.9681104579
 C,0,2.9974745819,13.7767229345,11.2147914768
 C,0,-0.6252806714,16.7965977896,11.5369194727
 C,0,5.2555677304,14.9688195973,11.2043204444
 C,0,-2.4398661226,17.7127021432,10.0316197539
 C,0,6.0315670855,13.6458387309,11.0524929048
 C,0,-1.8423428681,19.1309333506,10.128641911
 C,0,6.1211477295,16.0322413681,11.9040449583
 C,0,-3.9542610226,17.7692214345,9.7643512734
 H,0,1.6787290759,17.8067137577,11.5503092761
 H,0,1.584895957,18.3642282653,14.5686276101
 H,0,3.9218568482,17.6995014434,14.03833074
 H,0,3.943289757,18.8010610091,12.6303012235
 H,0,3.8103531596,19.4598817616,14.2824197831
 H,0,1.6962880608,20.7420781029,13.8503512112
 H,0,1.850738795,20.2618335436,12.1391747548
 H,0,0.3187125133,19.982788309,13.0077858505
 H,0,4.1189967886,14.4296802969,13.0055203184
 H,0,4.9759035561,15.3341165852,10.1975921112
 H,0,7.0483234929,16.1983409647,11.3284512699
 H,0,5.5951214459,16.9961802515,11.9899766971
 H,0,6.411598071,15.7025144707,12.9192959729
 H,0,6.3276875286,13.2385881905,12.0375001959
 H,0,5.4540702931,12.8736511075,10.5151705847
 H,0,6.9585063818,13.8231785018,10.4811516767
 H,0,4.3294609325,12.0452049997,13.1260266352
 H,0,2.8098370773,12.7733591031,13.7767271497
 H,0,2.8412781824,11.0746678484,13.2122672518
 H,0,1.9201403697,12.0726774587,9.8674005898
 H,0,2.245224041,9.6226324659,11.6925140222
 H,0,1.8425536462,8.3842741153,9.5846217341
 H,0,0.4752481122,9.491649286,9.871102358
 H,0,1.7271183902,9.9044308111,8.6609462125
 H,0,4.1004986691,10.6346681482,9.4279219637
 H,0,4.5502227254,10.4979203766,11.152116132
 H,0,4.19428741,9.033045074,10.2043378836
 H,0,-1.1120962556,11.1975993322,13.700441326
 H,0,-1.9044327323,9.0294977985,11.6852763775
 H,0,0.2132041449,8.4781661031,12.9548902487
 H,0,-0.6423156024,8.7437181541,14.5051552228
 H,0,-1.1192345009,7.3967340595,13.4385994802
 H,0,-3.1467575852,9.5130740804,14.4793226383
 H,0,-3.955792157,9.814039713,12.9057534949
 H,0,-3.5101149229,8.1604159897,13.3848326486
 H,0,-1.9233418261,13.181232536,14.3996368869
 H,0,-3.6669522888,13.5112617957,14.4496215166
 H,0,-3.0990280614,11.8319914331,14.6210394646
 H,0,-6.0435817408,14.3057820032,10.2689839704
 H,0,-7.2535559075,14.4743573509,11.5686699025
 H,0,-5.8548261043,15.5717106693,11.5222211299
 H,0,-5.437218114,11.3748824864,12.686074243
 H,0,-7.011308255,12.0586856186,12.2087826277
 H,0,-5.7600905824,11.7546968283,10.9701167533
 H,0,-5.5457713038,13.8107066335,13.2771780948
 H,0,-3.7083208773,13.3830474033,10.8397349237
 H,0,-2.6617757629,17.3742936797,12.1776637713
 H,0,-1.9432652586,17.176404795,9.2013381364
 H,0,-4.4833686929,18.3064246539,10.5736629157
 H,0,-4.1485484578,18.309582055,8.8215905921
 H,0,-4.391147893,16.7614161345,9.6723245338
 H,0,-0.7438914192,19.1178049484,10.2399448212
 H,0,-2.0747271032,19.6970587688,9.2105172224
 H,0,-2.2716232953,19.6893333937,10.9813002379
 H,0,-0.1452099068,16.9036179331,14.6934913028
 H,0,-0.8087037376,18.5182488562,14.2541500693
 H,0,-1.7203230583,17.0102804963,13.8850551678
 Li,0,0.5421736883,14.4971474886,10.2990272284
 Recover connectivity data from disk.

 GradGradGradGradGradGradGradGradGradGradGradGradGradGradGradGradGradGrad
 Berny optimization.
 Initialization pass.
                           ----------------------------
                           !    Initial Parameters    !
                           ! (Angstroms and Degrees)  !
 --------------------------                            --------------------------
 ! Name  Definition              Value          Derivative Info.                !
 --------------------------------------------------------------------------------
 ! R1    R(1,2)                  1.4822         calculate D2E/DX2 analytically  !
 ! R2    R(1,5)                  1.4738         calculate D2E/DX2 analytically  !
 ! R3    R(1,11)                 1.3816         calculate D2E/DX2 analytically  !
 ! R4    R(2,3)                  1.54           calculate D2E/DX2 analytically  !
 ! R5    R(2,6)                  1.5544         calculate D2E/DX2 analytically  !
 ! R6    R(2,91)                 1.1016         calculate D2E/DX2 analytically  !
 ! R7    R(3,4)                  1.2276         calculate D2E/DX2 analytically  !
 ! R8    R(3,9)                  1.3657         calculate D2E/DX2 analytically  !
 ! R9    R(5,81)                 1.1055         calculate D2E/DX2 analytically  !
 ! R10   R(5,82)                 1.0978         calculate D2E/DX2 analytically  !
 ! R11   R(5,83)                 1.1013         calculate D2E/DX2 analytically  !
 ! R12   R(6,7)                  1.5375         calculate D2E/DX2 analytically  !
 ! R13   R(6,8)                  1.542          calculate D2E/DX2 analytically  !
 ! R14   R(6,90)                 1.1077         calculate D2E/DX2 analytically  !
 ! R15   R(7,87)                 1.1031         calculate D2E/DX2 analytically  !
 ! R16   R(7,88)                 1.104          calculate D2E/DX2 analytically  !
 ! R17   R(7,89)                 1.1051         calculate D2E/DX2 analytically  !
 ! R18   R(8,84)                 1.106          calculate D2E/DX2 analytically  !
 ! R19   R(8,85)                 1.1037         calculate D2E/DX2 analytically  !
 ! R20   R(8,86)                 1.1045         calculate D2E/DX2 analytically  !
 ! R21   R(9,16)                 1.4682         calculate D2E/DX2 analytically  !
 ! R22   R(10,11)                1.5508         calculate D2E/DX2 analytically  !
 ! R23   R(10,13)                1.5463         calculate D2E/DX2 analytically  !
 ! R24   R(10,17)                1.4792         calculate D2E/DX2 analytically  !
 ! R25   R(10,73)                1.102          calculate D2E/DX2 analytically  !
 ! R26   R(11,12)                1.2391         calculate D2E/DX2 analytically  !
 ! R27   R(13,14)                1.5405         calculate D2E/DX2 analytically  !
 ! R28   R(13,15)                1.5404         calculate D2E/DX2 analytically  !
 ! R29   R(13,74)                1.1072         calculate D2E/DX2 analytically  !
 ! R30   R(14,78)                1.1058         calculate D2E/DX2 analytically  !
 ! R31   R(14,79)                1.1031         calculate D2E/DX2 analytically  !
 ! R32   R(14,80)                1.1033         calculate D2E/DX2 analytically  !
 ! R33   R(15,75)                1.102          calculate D2E/DX2 analytically  !
 ! R34   R(15,76)                1.1065         calculate D2E/DX2 analytically  !
 ! R35   R(15,77)                1.1039         calculate D2E/DX2 analytically  !
 ! R36   R(16,39)                1.5377         calculate D2E/DX2 analytically  !
 ! R37   R(16,41)                1.5477         calculate D2E/DX2 analytically  !
 ! R38   R(16,92)                1.0996         calculate D2E/DX2 analytically  !
 ! R39   R(17,26)                1.331          calculate D2E/DX2 analytically  !
 ! R40   R(18,39)                1.2596         calculate D2E/DX2 analytically  !
 ! R41   R(18,103)               1.8823         calculate D2E/DX2 analytically  !
 ! R42   R(19,38)                1.2585         calculate D2E/DX2 analytically  !
 ! R43   R(20,27)                1.227          calculate D2E/DX2 analytically  !
 ! R44   R(20,103)               3.4227         calculate D2E/DX2 analytically  !
 ! R45   R(21,26)                1.2389         calculate D2E/DX2 analytically  !
 ! R46   R(21,103)               1.9745         calculate D2E/DX2 analytically  !
 ! R47   R(22,24)                1.4891         calculate D2E/DX2 analytically  !
 ! R48   R(22,28)                1.4769         calculate D2E/DX2 analytically  !
 ! R49   R(22,38)                1.3636         calculate D2E/DX2 analytically  !
 ! R50   R(23,25)                1.4878         calculate D2E/DX2 analytically  !
 ! R51   R(23,29)                1.4755         calculate D2E/DX2 analytically  !
 ! R52   R(23,39)                1.3622         calculate D2E/DX2 analytically  !
 ! R53   R(24,26)                1.5477         calculate D2E/DX2 analytically  !
 ! R54   R(24,30)                1.5476         calculate D2E/DX2 analytically  !
 ! R55   R(24,65)                1.105          calculate D2E/DX2 analytically  !
 ! R56   R(25,27)                1.542          calculate D2E/DX2 analytically  !
 ! R57   R(25,31)                1.5597         calculate D2E/DX2 analytically  !
 ! R58   R(25,46)                1.1033         calculate D2E/DX2 analytically  !
 ! R59   R(27,36)                1.3592         calculate D2E/DX2 analytically  !
 ! R60   R(28,62)                1.1017         calculate D2E/DX2 analytically  !
 ! R61   R(28,63)                1.1028         calculate D2E/DX2 analytically  !
 ! R62   R(28,64)                1.0989         calculate D2E/DX2 analytically  !
 ! R63   R(29,100)               1.1023         calculate D2E/DX2 analytically  !
 ! R64   R(29,101)               1.1023         calculate D2E/DX2 analytically  !
 ! R65   R(29,102)               1.0986         calculate D2E/DX2 analytically  !
 ! R66   R(30,32)                1.5408         calculate D2E/DX2 analytically  !
 ! R67   R(30,34)                1.5447         calculate D2E/DX2 analytically  !
 ! R68   R(30,66)                1.1065         calculate D2E/DX2 analytically  !
 ! R69   R(31,33)                1.5423         calculate D2E/DX2 analytically  !
 ! R70   R(31,35)                1.5408         calculate D2E/DX2 analytically  !
 ! R71   R(31,47)                1.1059         calculate D2E/DX2 analytically  !
 ! R72   R(32,70)                1.1058         calculate D2E/DX2 analytically  !
 ! R73   R(32,71)                1.1033         calculate D2E/DX2 analytically  !
 ! R74   R(32,72)                1.1036         calculate D2E/DX2 analytically  !
 ! R75   R(33,51)                1.1036         calculate D2E/DX2 analytically  !
 ! R76   R(33,52)                1.1057         calculate D2E/DX2 analytically  !
 ! R77   R(33,53)                1.1035         calculate D2E/DX2 analytically  !
 ! R78   R(34,67)                1.1034         calculate D2E/DX2 analytically  !
 ! R79   R(34,68)                1.1022         calculate D2E/DX2 analytically  !
 ! R80   R(34,69)                1.106          calculate D2E/DX2 analytically  !
 ! R81   R(35,48)                1.103          calculate D2E/DX2 analytically  !
 ! R82   R(35,49)                1.1047         calculate D2E/DX2 analytically  !
 ! R83   R(35,50)                1.1036         calculate D2E/DX2 analytically  !
 ! R84   R(36,37)                1.4621         calculate D2E/DX2 analytically  !
 ! R85   R(37,38)                1.542          calculate D2E/DX2 analytically  !
 ! R86   R(37,40)                1.5476         calculate D2E/DX2 analytically  !
 ! R87   R(37,54)                1.1021         calculate D2E/DX2 analytically  !
 ! R88   R(40,42)                1.5413         calculate D2E/DX2 analytically  !
 ! R89   R(40,44)                1.5394         calculate D2E/DX2 analytically  !
 ! R90   R(40,55)                1.1069         calculate D2E/DX2 analytically  !
 ! R91   R(41,43)                1.542          calculate D2E/DX2 analytically  !
 ! R92   R(41,45)                1.5388         calculate D2E/DX2 analytically  !
 ! R93   R(41,93)                1.1062         calculate D2E/DX2 analytically  !
 ! R94   R(42,59)                1.1062         calculate D2E/DX2 analytically  !
 ! R95   R(42,60)                1.1039         calculate D2E/DX2 analytically  !
 ! R96   R(42,61)                1.1032         calculate D2E/DX2 analytically  !
 ! R97   R(43,97)                1.1042         calculate D2E/DX2 analytically  !
 ! R98   R(43,98)                1.1034         calculate D2E/DX2 analytically  !
 ! R99   R(43,99)                1.1059         calculate D2E/DX2 analytically  !
 ! R100  R(44,56)                1.1039         calculate D2E/DX2 analytically  !
 ! R101  R(44,57)                1.1015         calculate D2E/DX2 analytically  !
 ! R102  R(44,58)                1.1063         calculate D2E/DX2 analytically  !
 ! R103  R(45,94)                1.1061         calculate D2E/DX2 analytically  !
 ! R104  R(45,95)                1.1039         calculate D2E/DX2 analytically  !
 ! R105  R(45,96)                1.1023         calculate D2E/DX2 analytically  !
 ! A1    A(2,1,5)              118.6847         calculate D2E/DX2 analytically  !
 ! A2    A(2,1,11)             117.6044         calculate D2E/DX2 analytically  !
 ! A3    A(5,1,11)             123.4666         calculate D2E/DX2 analytically  !
 ! A4    A(1,2,3)              107.6918         calculate D2E/DX2 analytically  !
 ! A5    A(1,2,6)              114.5108         calculate D2E/DX2 analytically  !
 ! A6    A(1,2,91)             105.056          calculate D2E/DX2 analytically  !
 ! A7    A(3,2,6)              110.5277         calculate D2E/DX2 analytically  !
 ! A8    A(3,2,91)             109.3179         calculate D2E/DX2 analytically  !
 ! A9    A(6,2,91)             109.5148         calculate D2E/DX2 analytically  !
 ! A10   A(2,3,4)              124.236          calculate D2E/DX2 analytically  !
 ! A11   A(2,3,9)              111.8208         calculate D2E/DX2 analytically  !
 ! A12   A(4,3,9)              123.9415         calculate D2E/DX2 analytically  !
 ! A13   A(1,5,81)             111.8793         calculate D2E/DX2 analytically  !
 ! A14   A(1,5,82)             108.4364         calculate D2E/DX2 analytically  !
 ! A15   A(1,5,83)             111.2613         calculate D2E/DX2 analytically  !
 ! A16   A(81,5,82)            107.3575         calculate D2E/DX2 analytically  !
 ! A17   A(81,5,83)            109.5912         calculate D2E/DX2 analytically  !
 ! A18   A(82,5,83)            108.1601         calculate D2E/DX2 analytically  !
 ! A19   A(2,6,7)              111.216          calculate D2E/DX2 analytically  !
 ! A20   A(2,6,8)              109.8893         calculate D2E/DX2 analytically  !
 ! A21   A(2,6,90)             107.9835         calculate D2E/DX2 analytically  !
 ! A22   A(7,6,8)              110.8662         calculate D2E/DX2 analytically  !
 ! A23   A(7,6,90)             108.982          calculate D2E/DX2 analytically  !
 ! A24   A(8,6,90)             107.7915         calculate D2E/DX2 analytically  !
 ! A25   A(6,7,87)             111.7528         calculate D2E/DX2 analytically  !
 ! A26   A(6,7,88)             110.0846         calculate D2E/DX2 analytically  !
 ! A27   A(6,7,89)             111.2412         calculate D2E/DX2 analytically  !
 ! A28   A(87,7,88)            107.6204         calculate D2E/DX2 analytically  !
 ! A29   A(87,7,89)            108.0368         calculate D2E/DX2 analytically  !
 ! A30   A(88,7,89)            107.9526         calculate D2E/DX2 analytically  !
 ! A31   A(6,8,84)             111.0455         calculate D2E/DX2 analytically  !
 ! A32   A(6,8,85)             110.1486         calculate D2E/DX2 analytically  !
 ! A33   A(6,8,86)             112.2479         calculate D2E/DX2 analytically  !
 ! A34   A(84,8,85)            107.6547         calculate D2E/DX2 analytically  !
 ! A35   A(84,8,86)            108.2647         calculate D2E/DX2 analytically  !
 ! A36   A(85,8,86)            107.296          calculate D2E/DX2 analytically  !
 ! A37   A(3,9,16)             116.3561         calculate D2E/DX2 analytically  !
 ! A38   A(11,10,13)           112.2213         calculate D2E/DX2 analytically  !
 ! A39   A(11,10,17)           110.2691         calculate D2E/DX2 analytically  !
 ! A40   A(11,10,73)           112.8906         calculate D2E/DX2 analytically  !
 ! A41   A(13,10,17)           104.8013         calculate D2E/DX2 analytically  !
 ! A42   A(13,10,73)           111.1059         calculate D2E/DX2 analytically  !
 ! A43   A(17,10,73)           104.9912         calculate D2E/DX2 analytically  !
 ! A44   A(1,11,10)            116.7836         calculate D2E/DX2 analytically  !
 ! A45   A(1,11,12)            124.0242         calculate D2E/DX2 analytically  !
 ! A46   A(10,11,12)           119.1681         calculate D2E/DX2 analytically  !
 ! A47   A(10,13,14)           111.5352         calculate D2E/DX2 analytically  !
 ! A48   A(10,13,15)           111.5825         calculate D2E/DX2 analytically  !
 ! A49   A(10,13,74)           105.4508         calculate D2E/DX2 analytically  !
 ! A50   A(14,13,15)           110.5059         calculate D2E/DX2 analytically  !
 ! A51   A(14,13,74)           108.1735         calculate D2E/DX2 analytically  !
 ! A52   A(15,13,74)           109.3977         calculate D2E/DX2 analytically  !
 ! A53   A(13,14,78)           111.5933         calculate D2E/DX2 analytically  !
 ! A54   A(13,14,79)           112.2723         calculate D2E/DX2 analytically  !
 ! A55   A(13,14,80)           109.5033         calculate D2E/DX2 analytically  !
 ! A56   A(78,14,79)           108.6897         calculate D2E/DX2 analytically  !
 ! A57   A(78,14,80)           107.1518         calculate D2E/DX2 analytically  !
 ! A58   A(79,14,80)           107.4162         calculate D2E/DX2 analytically  !
 ! A59   A(13,15,75)           112.0962         calculate D2E/DX2 analytically  !
 ! A60   A(13,15,76)           110.9938         calculate D2E/DX2 analytically  !
 ! A61   A(13,15,77)           109.854          calculate D2E/DX2 analytically  !
 ! A62   A(75,15,76)           108.3359         calculate D2E/DX2 analytically  !
 ! A63   A(75,15,77)           107.8554         calculate D2E/DX2 analytically  !
 ! A64   A(76,15,77)           107.5462         calculate D2E/DX2 analytically  !
 ! A65   A(9,16,39)            107.2395         calculate D2E/DX2 analytically  !
 ! A66   A(9,16,41)            108.179          calculate D2E/DX2 analytically  !
 ! A67   A(9,16,92)            108.1829         calculate D2E/DX2 analytically  !
 ! A68   A(39,16,41)           110.1268         calculate D2E/DX2 analytically  !
 ! A69   A(39,16,92)           112.939          calculate D2E/DX2 analytically  !
 ! A70   A(41,16,92)           110.0084         calculate D2E/DX2 analytically  !
 ! A71   A(10,17,26)           121.7958         calculate D2E/DX2 analytically  !
 ! A72   A(39,18,103)          130.0818         calculate D2E/DX2 analytically  !
 ! A73   A(27,20,103)           75.5703         calculate D2E/DX2 analytically  !
 ! A74   A(26,21,103)          125.8325         calculate D2E/DX2 analytically  !
 ! A75   A(24,22,28)           119.1354         calculate D2E/DX2 analytically  !
 ! A76   A(24,22,38)           116.7604         calculate D2E/DX2 analytically  !
 ! A77   A(28,22,38)           122.4564         calculate D2E/DX2 analytically  !
 ! A78   A(25,23,29)           119.2842         calculate D2E/DX2 analytically  !
 ! A79   A(25,23,39)           116.0115         calculate D2E/DX2 analytically  !
 ! A80   A(29,23,39)           123.1887         calculate D2E/DX2 analytically  !
 ! A81   A(22,24,26)           105.5091         calculate D2E/DX2 analytically  !
 ! A82   A(22,24,30)           115.1279         calculate D2E/DX2 analytically  !
 ! A83   A(22,24,65)           104.3905         calculate D2E/DX2 analytically  !
 ! A84   A(26,24,30)           117.2656         calculate D2E/DX2 analytically  !
 ! A85   A(26,24,65)           105.4622         calculate D2E/DX2 analytically  !
 ! A86   A(30,24,65)           107.9531         calculate D2E/DX2 analytically  !
 ! A87   A(23,25,27)           109.6307         calculate D2E/DX2 analytically  !
 ! A88   A(23,25,31)           112.1109         calculate D2E/DX2 analytically  !
 ! A89   A(23,25,46)           106.2785         calculate D2E/DX2 analytically  !
 ! A90   A(27,25,31)           114.6424         calculate D2E/DX2 analytically  !
 ! A91   A(27,25,46)           105.704          calculate D2E/DX2 analytically  !
 ! A92   A(31,25,46)           107.9189         calculate D2E/DX2 analytically  !
 ! A93   A(17,26,21)           124.8839         calculate D2E/DX2 analytically  !
 ! A94   A(17,26,24)           113.6006         calculate D2E/DX2 analytically  !
 ! A95   A(21,26,24)           121.4287         calculate D2E/DX2 analytically  !
 ! A96   A(20,27,25)           125.5089         calculate D2E/DX2 analytically  !
 ! A97   A(20,27,36)           124.2325         calculate D2E/DX2 analytically  !
 ! A98   A(25,27,36)           110.2325         calculate D2E/DX2 analytically  !
 ! A99   A(22,28,62)           111.2826         calculate D2E/DX2 analytically  !
 ! A100  A(22,28,63)           110.2186         calculate D2E/DX2 analytically  !
 ! A101  A(22,28,64)           108.5431         calculate D2E/DX2 analytically  !
 ! A102  A(62,28,63)           110.0465         calculate D2E/DX2 analytically  !
 ! A103  A(62,28,64)           107.8632         calculate D2E/DX2 analytically  !
 ! A104  A(63,28,64)           108.8103         calculate D2E/DX2 analytically  !
 ! A105  A(23,29,100)          108.2146         calculate D2E/DX2 analytically  !
 ! A106  A(23,29,101)          111.8917         calculate D2E/DX2 analytically  !
 ! A107  A(23,29,102)          109.9752         calculate D2E/DX2 analytically  !
 ! A108  A(100,29,101)         109.4788         calculate D2E/DX2 analytically  !
 ! A109  A(100,29,102)         107.3904         calculate D2E/DX2 analytically  !
 ! A110  A(101,29,102)         109.7716         calculate D2E/DX2 analytically  !
 ! A111  A(24,30,32)           111.1212         calculate D2E/DX2 analytically  !
 ! A112  A(24,30,34)           109.2141         calculate D2E/DX2 analytically  !
 ! A113  A(24,30,66)           109.3754         calculate D2E/DX2 analytically  !
 ! A114  A(32,30,34)           110.1448         calculate D2E/DX2 analytically  !
 ! A115  A(32,30,66)           108.9302         calculate D2E/DX2 analytically  !
 ! A116  A(34,30,66)           107.9947         calculate D2E/DX2 analytically  !
 ! A117  A(25,31,33)           109.7805         calculate D2E/DX2 analytically  !
 ! A118  A(25,31,35)           112.0628         calculate D2E/DX2 analytically  !
 ! A119  A(25,31,47)           108.3257         calculate D2E/DX2 analytically  !
 ! A120  A(33,31,35)           110.0446         calculate D2E/DX2 analytically  !
 ! A121  A(33,31,47)           109.1894         calculate D2E/DX2 analytically  !
 ! A122  A(35,31,47)           107.3562         calculate D2E/DX2 analytically  !
 ! A123  A(30,32,70)           111.0326         calculate D2E/DX2 analytically  !
 ! A124  A(30,32,71)           112.7081         calculate D2E/DX2 analytically  !
 ! A125  A(30,32,72)           109.7818         calculate D2E/DX2 analytically  !
 ! A126  A(70,32,71)           107.9932         calculate D2E/DX2 analytically  !
 ! A127  A(70,32,72)           107.5516         calculate D2E/DX2 analytically  !
 ! A128  A(71,32,72)           107.5787         calculate D2E/DX2 analytically  !
 ! A129  A(31,33,51)           110.1971         calculate D2E/DX2 analytically  !
 ! A130  A(31,33,52)           110.4581         calculate D2E/DX2 analytically  !
 ! A131  A(31,33,53)           112.7751         calculate D2E/DX2 analytically  !
 ! A132  A(51,33,52)           107.6989         calculate D2E/DX2 analytically  !
 ! A133  A(51,33,53)           107.8968         calculate D2E/DX2 analytically  !
 ! A134  A(52,33,53)           107.6346         calculate D2E/DX2 analytically  !
 ! A135  A(30,34,67)           109.8922         calculate D2E/DX2 analytically  !
 ! A136  A(30,34,68)           112.4019         calculate D2E/DX2 analytically  !
 ! A137  A(30,34,69)           110.7027         calculate D2E/DX2 analytically  !
 ! A138  A(67,34,68)           107.8474         calculate D2E/DX2 analytically  !
 ! A139  A(67,34,69)           107.5669         calculate D2E/DX2 analytically  !
 ! A140  A(68,34,69)           108.2657         calculate D2E/DX2 analytically  !
 ! A141  A(31,35,48)           112.5102         calculate D2E/DX2 analytically  !
 ! A142  A(31,35,49)           111.3963         calculate D2E/DX2 analytically  !
 ! A143  A(31,35,50)           109.2493         calculate D2E/DX2 analytically  !
 ! A144  A(48,35,49)           108.1613         calculate D2E/DX2 analytically  !
 ! A145  A(48,35,50)           107.6035         calculate D2E/DX2 analytically  !
 ! A146  A(49,35,50)           107.7395         calculate D2E/DX2 analytically  !
 ! A147  A(27,36,37)           116.5446         calculate D2E/DX2 analytically  !
 ! A148  A(36,37,38)           106.5956         calculate D2E/DX2 analytically  !
 ! A149  A(36,37,40)           106.6539         calculate D2E/DX2 analytically  !
 ! A150  A(36,37,54)           108.4433         calculate D2E/DX2 analytically  !
 ! A151  A(38,37,40)           111.4759         calculate D2E/DX2 analytically  !
 ! A152  A(38,37,54)           112.4565         calculate D2E/DX2 analytically  !
 ! A153  A(40,37,54)           110.9037         calculate D2E/DX2 analytically  !
 ! A154  A(19,38,22)           122.0202         calculate D2E/DX2 analytically  !
 ! A155  A(19,38,37)           117.915          calculate D2E/DX2 analytically  !
 ! A156  A(22,38,37)           120.0364         calculate D2E/DX2 analytically  !
 ! A157  A(16,39,18)           118.3215         calculate D2E/DX2 analytically  !
 ! A158  A(16,39,23)           120.6632         calculate D2E/DX2 analytically  !
 ! A159  A(18,39,23)           120.7603         calculate D2E/DX2 analytically  !
 ! A160  A(37,40,42)           111.0148         calculate D2E/DX2 analytically  !
 ! A161  A(37,40,44)           110.8741         calculate D2E/DX2 analytically  !
 ! A162  A(37,40,55)           106.201          calculate D2E/DX2 analytically  !
 ! A163  A(42,40,44)           110.7717         calculate D2E/DX2 analytically  !
 ! A164  A(42,40,55)           108.7174         calculate D2E/DX2 analytically  !
 ! A165  A(44,40,55)           109.1176         calculate D2E/DX2 analytically  !
 ! A166  A(16,41,43)           110.3542         calculate D2E/DX2 analytically  !
 ! A167  A(16,41,45)           110.6307         calculate D2E/DX2 analytically  !
 ! A168  A(16,41,93)           106.8962         calculate D2E/DX2 analytically  !
 ! A169  A(43,41,45)           111.0073         calculate D2E/DX2 analytically  !
 ! A170  A(43,41,93)           108.6128         calculate D2E/DX2 analytically  !
 ! A171  A(45,41,93)           109.2233         calculate D2E/DX2 analytically  !
 ! A172  A(40,42,59)           111.2882         calculate D2E/DX2 analytically  !
 ! A173  A(40,42,60)           112.6445         calculate D2E/DX2 analytically  !
 ! A174  A(40,42,61)           109.6374         calculate D2E/DX2 analytically  !
 ! A175  A(59,42,60)           108.4174         calculate D2E/DX2 analytically  !
 ! A176  A(59,42,61)           107.1813         calculate D2E/DX2 analytically  !
 ! A177  A(60,42,61)           107.4532         calculate D2E/DX2 analytically  !
 ! A178  A(41,43,97)           112.3894         calculate D2E/DX2 analytically  !
 ! A179  A(41,43,98)           109.7507         calculate D2E/DX2 analytically  !
 ! A180  A(41,43,99)           111.2523         calculate D2E/DX2 analytically  !
 ! A181  A(97,43,98)           107.4277         calculate D2E/DX2 analytically  !
 ! A182  A(97,43,99)           108.3269         calculate D2E/DX2 analytically  !
 ! A183  A(98,43,99)           107.5009         calculate D2E/DX2 analytically  !
 ! A184  A(40,44,56)           109.8289         calculate D2E/DX2 analytically  !
 ! A185  A(40,44,57)           111.8069         calculate D2E/DX2 analytically  !
 ! A186  A(40,44,58)           111.0316         calculate D2E/DX2 analytically  !
 ! A187  A(56,44,57)           108.0662         calculate D2E/DX2 analytically  !
 ! A188  A(56,44,58)           107.6292         calculate D2E/DX2 analytically  !
 ! A189  A(57,44,58)           108.3381         calculate D2E/DX2 analytically  !
 ! A190  A(41,45,94)           111.1926         calculate D2E/DX2 analytically  !
 ! A191  A(41,45,95)           109.8477         calculate D2E/DX2 analytically  !
 ! A192  A(41,45,96)           111.7757         calculate D2E/DX2 analytically  !
 ! A193  A(94,45,95)           107.6346         calculate D2E/DX2 analytically  !
 ! A194  A(94,45,96)           108.3928         calculate D2E/DX2 analytically  !
 ! A195  A(95,45,96)           107.8483         calculate D2E/DX2 analytically  !
 ! A196  A(18,103,20)           74.6472         calculate D2E/DX2 analytically  !
 ! A197  A(18,103,21)          124.4861         calculate D2E/DX2 analytically  !
 ! A198  A(20,103,21)           73.8921         calculate D2E/DX2 analytically  !
 ! D1    D(5,1,2,3)             56.3292         calculate D2E/DX2 analytically  !
 ! D2    D(5,1,2,6)            -67.0353         calculate D2E/DX2 analytically  !
 ! D3    D(5,1,2,91)           172.7768         calculate D2E/DX2 analytically  !
 ! D4    D(11,1,2,3)          -118.1919         calculate D2E/DX2 analytically  !
 ! D5    D(11,1,2,6)           118.4436         calculate D2E/DX2 analytically  !
 ! D6    D(11,1,2,91)           -1.7443         calculate D2E/DX2 analytically  !
 ! D7    D(2,1,5,81)          -106.3468         calculate D2E/DX2 analytically  !
 ! D8    D(2,1,5,82)            11.8664         calculate D2E/DX2 analytically  !
 ! D9    D(2,1,5,83)           130.6983         calculate D2E/DX2 analytically  !
 ! D10   D(11,1,5,81)           67.832          calculate D2E/DX2 analytically  !
 ! D11   D(11,1,5,82)         -173.9549         calculate D2E/DX2 analytically  !
 ! D12   D(11,1,5,83)          -55.1229         calculate D2E/DX2 analytically  !
 ! D13   D(2,1,11,10)          173.5789         calculate D2E/DX2 analytically  !
 ! D14   D(2,1,11,12)           -8.2255         calculate D2E/DX2 analytically  !
 ! D15   D(5,1,11,10)           -0.6585         calculate D2E/DX2 analytically  !
 ! D16   D(5,1,11,12)          177.5371         calculate D2E/DX2 analytically  !
 ! D17   D(1,2,3,4)            -73.3436         calculate D2E/DX2 analytically  !
 ! D18   D(1,2,3,9)            106.1944         calculate D2E/DX2 analytically  !
 ! D19   D(6,2,3,4)             52.4187         calculate D2E/DX2 analytically  !
 ! D20   D(6,2,3,9)           -128.0433         calculate D2E/DX2 analytically  !
 ! D21   D(91,2,3,4)           173.0318         calculate D2E/DX2 analytically  !
 ! D22   D(91,2,3,9)            -7.4302         calculate D2E/DX2 analytically  !
 ! D23   D(1,2,6,7)            -54.2692         calculate D2E/DX2 analytically  !
 ! D24   D(1,2,6,8)           -177.4144         calculate D2E/DX2 analytically  !
 ! D25   D(1,2,6,90)            65.259          calculate D2E/DX2 analytically  !
 ! D26   D(3,2,6,7)           -176.0968         calculate D2E/DX2 analytically  !
 ! D27   D(3,2,6,8)             60.7579         calculate D2E/DX2 analytically  !
 ! D28   D(3,2,6,90)           -56.5686         calculate D2E/DX2 analytically  !
 ! D29   D(91,2,6,7)            63.4077         calculate D2E/DX2 analytically  !
 ! D30   D(91,2,6,8)           -59.7376         calculate D2E/DX2 analytically  !
 ! D31   D(91,2,6,90)         -177.0641         calculate D2E/DX2 analytically  !
 ! D32   D(2,3,9,16)           178.4306         calculate D2E/DX2 analytically  !
 ! D33   D(4,3,9,16)            -2.0298         calculate D2E/DX2 analytically  !
 ! D34   D(2,6,7,87)            62.0544         calculate D2E/DX2 analytically  !
 ! D35   D(2,6,7,88)          -178.4131         calculate D2E/DX2 analytically  !
 ! D36   D(2,6,7,89)           -58.7937         calculate D2E/DX2 analytically  !
 ! D37   D(8,6,7,87)          -175.3621         calculate D2E/DX2 analytically  !
 ! D38   D(8,6,7,88)           -55.8295         calculate D2E/DX2 analytically  !
 ! D39   D(8,6,7,89)            63.7899         calculate D2E/DX2 analytically  !
 ! D40   D(90,6,7,87)          -56.8773         calculate D2E/DX2 analytically  !
 ! D41   D(90,6,7,88)           62.6552         calculate D2E/DX2 analytically  !
 ! D42   D(90,6,7,89)         -177.7254         calculate D2E/DX2 analytically  !
 ! D43   D(2,6,8,84)            61.2158         calculate D2E/DX2 analytically  !
 ! D44   D(2,6,8,85)          -179.6198         calculate D2E/DX2 analytically  !
 ! D45   D(2,6,8,86)           -60.1311         calculate D2E/DX2 analytically  !
 ! D46   D(7,6,8,84)           -62.1348         calculate D2E/DX2 analytically  !
 ! D47   D(7,6,8,85)            57.0296         calculate D2E/DX2 analytically  !
 ! D48   D(7,6,8,86)           176.5184         calculate D2E/DX2 analytically  !
 ! D49   D(90,6,8,84)          178.662          calculate D2E/DX2 analytically  !
 ! D50   D(90,6,8,85)          -62.1736         calculate D2E/DX2 analytically  !
 ! D51   D(90,6,8,86)           57.3151         calculate D2E/DX2 analytically  !
 ! D52   D(3,9,16,39)          105.1201         calculate D2E/DX2 analytically  !
 ! D53   D(3,9,16,41)         -136.1219         calculate D2E/DX2 analytically  !
 ! D54   D(3,9,16,92)          -16.9837         calculate D2E/DX2 analytically  !
 ! D55   D(13,10,11,1)         110.5778         calculate D2E/DX2 analytically  !
 ! D56   D(13,10,11,12)        -67.7095         calculate D2E/DX2 analytically  !
 ! D57   D(17,10,11,1)        -132.9957         calculate D2E/DX2 analytically  !
 ! D58   D(17,10,11,12)         48.717          calculate D2E/DX2 analytically  !
 ! D59   D(73,10,11,1)         -15.9151         calculate D2E/DX2 analytically  !
 ! D60   D(73,10,11,12)        165.7976         calculate D2E/DX2 analytically  !
 ! D61   D(11,10,13,14)        -59.2954         calculate D2E/DX2 analytically  !
 ! D62   D(11,10,13,15)        176.5735         calculate D2E/DX2 analytically  !
 ! D63   D(11,10,13,74)         57.895          calculate D2E/DX2 analytically  !
 ! D64   D(17,10,13,14)       -178.9661         calculate D2E/DX2 analytically  !
 ! D65   D(17,10,13,15)         56.9027         calculate D2E/DX2 analytically  !
 ! D66   D(17,10,13,74)        -61.7757         calculate D2E/DX2 analytically  !
 ! D67   D(73,10,13,14)         68.1554         calculate D2E/DX2 analytically  !
 ! D68   D(73,10,13,15)        -55.9758         calculate D2E/DX2 analytically  !
 ! D69   D(73,10,13,74)       -174.6542         calculate D2E/DX2 analytically  !
 ! D70   D(11,10,17,26)         40.1868         calculate D2E/DX2 analytically  !
 ! D71   D(13,10,17,26)        161.1555         calculate D2E/DX2 analytically  !
 ! D72   D(73,10,17,26)        -81.6938         calculate D2E/DX2 analytically  !
 ! D73   D(10,13,14,78)        -64.6097         calculate D2E/DX2 analytically  !
 ! D74   D(10,13,14,79)         57.7015         calculate D2E/DX2 analytically  !
 ! D75   D(10,13,14,80)        176.9232         calculate D2E/DX2 analytically  !
 ! D76   D(15,13,14,78)         60.1257         calculate D2E/DX2 analytically  !
 ! D77   D(15,13,14,79)       -177.5631         calculate D2E/DX2 analytically  !
 ! D78   D(15,13,14,80)        -58.3413         calculate D2E/DX2 analytically  !
 ! D79   D(74,13,14,78)        179.8602         calculate D2E/DX2 analytically  !
 ! D80   D(74,13,14,79)        -57.8286         calculate D2E/DX2 analytically  !
 ! D81   D(74,13,14,80)         61.3932         calculate D2E/DX2 analytically  !
 ! D82   D(10,13,15,75)        -58.2149         calculate D2E/DX2 analytically  !
 ! D83   D(10,13,15,76)         63.0809         calculate D2E/DX2 analytically  !
 ! D84   D(10,13,15,77)       -178.1109         calculate D2E/DX2 analytically  !
 ! D85   D(14,13,15,75)        177.0766         calculate D2E/DX2 analytically  !
 ! D86   D(14,13,15,76)        -61.6276         calculate D2E/DX2 analytically  !
 ! D87   D(14,13,15,77)         57.1806         calculate D2E/DX2 analytically  !
 ! D88   D(74,13,15,75)         58.0821         calculate D2E/DX2 analytically  !
 ! D89   D(74,13,15,76)        179.3779         calculate D2E/DX2 analytically  !
 ! D90   D(74,13,15,77)        -61.8139         calculate D2E/DX2 analytically  !
 ! D91   D(9,16,39,18)          61.4011         calculate D2E/DX2 analytically  !
 ! D92   D(9,16,39,23)        -124.3555         calculate D2E/DX2 analytically  !
 ! D93   D(41,16,39,18)        -56.0913         calculate D2E/DX2 analytically  !
 ! D94   D(41,16,39,23)        118.1522         calculate D2E/DX2 analytically  !
 ! D95   D(92,16,39,18)       -179.5135         calculate D2E/DX2 analytically  !
 ! D96   D(92,16,39,23)         -5.27           calculate D2E/DX2 analytically  !
 ! D97   D(9,16,41,43)        -176.8669         calculate D2E/DX2 analytically  !
 ! D98   D(9,16,41,45)          59.8872         calculate D2E/DX2 analytically  !
 ! D99   D(9,16,41,93)         -58.9317         calculate D2E/DX2 analytically  !
 ! D100  D(39,16,41,43)        -59.9583         calculate D2E/DX2 analytically  !
 ! D101  D(39,16,41,45)        176.7958         calculate D2E/DX2 analytically  !
 ! D102  D(39,16,41,93)         57.9769         calculate D2E/DX2 analytically  !
 ! D103  D(92,16,41,43)         65.1561         calculate D2E/DX2 analytically  !
 ! D104  D(92,16,41,45)        -58.0898         calculate D2E/DX2 analytically  !
 ! D105  D(92,16,41,93)       -176.9087         calculate D2E/DX2 analytically  !
 ! D106  D(10,17,26,21)         -1.0703         calculate D2E/DX2 analytically  !
 ! D107  D(10,17,26,24)        175.5706         calculate D2E/DX2 analytically  !
 ! D108  D(103,18,39,16)       -89.2994         calculate D2E/DX2 analytically  !
 ! D109  D(103,18,39,23)        96.463          calculate D2E/DX2 analytically  !
 ! D110  D(39,18,103,20)       -57.2964         calculate D2E/DX2 analytically  !
 ! D111  D(39,18,103,21)         0.1792         calculate D2E/DX2 analytically  !
 ! D112  D(103,20,27,25)        95.4475         calculate D2E/DX2 analytically  !
 ! D113  D(103,20,27,36)       -82.51           calculate D2E/DX2 analytically  !
 ! D114  D(27,20,103,18)       -50.1899         calculate D2E/DX2 analytically  !
 ! D115  D(27,20,103,21)       176.145          calculate D2E/DX2 analytically  !
 ! D116  D(103,21,26,17)      -165.5376         calculate D2E/DX2 analytically  !
 ! D117  D(103,21,26,24)        18.0702         calculate D2E/DX2 analytically  !
 ! D118  D(26,21,103,18)      -162.1322         calculate D2E/DX2 analytically  !
 ! D119  D(26,21,103,20)      -104.3209         calculate D2E/DX2 analytically  !
 ! D120  D(28,22,24,26)         77.6853         calculate D2E/DX2 analytically  !
 ! D121  D(28,22,24,30)        -53.2554         calculate D2E/DX2 analytically  !
 ! D122  D(28,22,24,65)       -171.4086         calculate D2E/DX2 analytically  !
 ! D123  D(38,22,24,26)        -88.0515         calculate D2E/DX2 analytically  !
 ! D124  D(38,22,24,30)        141.0078         calculate D2E/DX2 analytically  !
 ! D125  D(38,22,24,65)         22.8546         calculate D2E/DX2 analytically  !
 ! D126  D(24,22,28,62)        123.8064         calculate D2E/DX2 analytically  !
 ! D127  D(24,22,28,63)       -113.8164         calculate D2E/DX2 analytically  !
 ! D128  D(24,22,28,64)          5.2591         calculate D2E/DX2 analytically  !
 ! D129  D(38,22,28,62)        -71.3059         calculate D2E/DX2 analytically  !
 ! D130  D(38,22,28,63)         51.0713         calculate D2E/DX2 analytically  !
 ! D131  D(38,22,28,64)        170.1468         calculate D2E/DX2 analytically  !
 ! D132  D(24,22,38,19)         -1.2585         calculate D2E/DX2 analytically  !
 ! D133  D(24,22,38,37)       -179.2808         calculate D2E/DX2 analytically  !
 ! D134  D(28,22,38,19)       -166.4826         calculate D2E/DX2 analytically  !
 ! D135  D(28,22,38,37)         15.4952         calculate D2E/DX2 analytically  !
 ! D136  D(29,23,25,27)         91.2694         calculate D2E/DX2 analytically  !
 ! D137  D(29,23,25,31)        -37.2471         calculate D2E/DX2 analytically  !
 ! D138  D(29,23,25,46)       -154.9316         calculate D2E/DX2 analytically  !
 ! D139  D(39,23,25,27)        -75.1422         calculate D2E/DX2 analytically  !
 ! D140  D(39,23,25,31)        156.3414         calculate D2E/DX2 analytically  !
 ! D141  D(39,23,25,46)         38.6569         calculate D2E/DX2 analytically  !
 ! D142  D(25,23,29,100)       -44.4446         calculate D2E/DX2 analytically  !
 ! D143  D(25,23,29,101)        76.2563         calculate D2E/DX2 analytically  !
 ! D144  D(25,23,29,102)      -161.4708         calculate D2E/DX2 analytically  !
 ! D145  D(39,23,29,100)       120.9414         calculate D2E/DX2 analytically  !
 ! D146  D(39,23,29,101)      -118.3577         calculate D2E/DX2 analytically  !
 ! D147  D(39,23,29,102)         3.9153         calculate D2E/DX2 analytically  !
 ! D148  D(25,23,39,16)       -164.2026         calculate D2E/DX2 analytically  !
 ! D149  D(25,23,39,18)          9.8998         calculate D2E/DX2 analytically  !
 ! D150  D(29,23,39,16)         29.9713         calculate D2E/DX2 analytically  !
 ! D151  D(29,23,39,18)       -155.9264         calculate D2E/DX2 analytically  !
 ! D152  D(22,24,26,17)       -116.8477         calculate D2E/DX2 analytically  !
 ! D153  D(22,24,26,21)         59.9231         calculate D2E/DX2 analytically  !
 ! D154  D(30,24,26,17)         12.8536         calculate D2E/DX2 analytically  !
 ! D155  D(30,24,26,21)       -170.3756         calculate D2E/DX2 analytically  !
 ! D156  D(65,24,26,17)        133.0092         calculate D2E/DX2 analytically  !
 ! D157  D(65,24,26,21)        -50.22           calculate D2E/DX2 analytically  !
 ! D158  D(22,24,30,32)        -46.0397         calculate D2E/DX2 analytically  !
 ! D159  D(22,24,30,34)       -167.7485         calculate D2E/DX2 analytically  !
 ! D160  D(22,24,30,66)         74.259          calculate D2E/DX2 analytically  !
 ! D161  D(26,24,30,32)       -171.0683         calculate D2E/DX2 analytically  !
 ! D162  D(26,24,30,34)         67.2229         calculate D2E/DX2 analytically  !
 ! D163  D(26,24,30,66)        -50.7696         calculate D2E/DX2 analytically  !
 ! D164  D(65,24,30,32)         70.098          calculate D2E/DX2 analytically  !
 ! D165  D(65,24,30,34)        -51.6108         calculate D2E/DX2 analytically  !
 ! D166  D(65,24,30,66)       -169.6033         calculate D2E/DX2 analytically  !
 ! D167  D(23,25,27,20)        -33.0691         calculate D2E/DX2 analytically  !
 ! D168  D(23,25,27,36)        145.1313         calculate D2E/DX2 analytically  !
 ! D169  D(31,25,27,20)         94.0371         calculate D2E/DX2 analytically  !
 ! D170  D(31,25,27,36)        -87.7625         calculate D2E/DX2 analytically  !
 ! D171  D(46,25,27,20)       -147.2382         calculate D2E/DX2 analytically  !
 ! D172  D(46,25,27,36)         30.9622         calculate D2E/DX2 analytically  !
 ! D173  D(23,25,31,33)        -64.8158         calculate D2E/DX2 analytically  !
 ! D174  D(23,25,31,35)        172.5832         calculate D2E/DX2 analytically  !
 ! D175  D(23,25,31,47)         54.3332         calculate D2E/DX2 analytically  !
 ! D176  D(27,25,31,33)        169.3577         calculate D2E/DX2 analytically  !
 ! D177  D(27,25,31,35)         46.7567         calculate D2E/DX2 analytically  !
 ! D178  D(27,25,31,47)        -71.4933         calculate D2E/DX2 analytically  !
 ! D179  D(46,25,31,33)         51.8865         calculate D2E/DX2 analytically  !
 ! D180  D(46,25,31,35)        -70.7144         calculate D2E/DX2 analytically  !
 ! D181  D(46,25,31,47)        171.0355         calculate D2E/DX2 analytically  !
 ! D182  D(20,27,36,37)          3.6334         calculate D2E/DX2 analytically  !
 ! D183  D(25,27,36,37)       -174.5947         calculate D2E/DX2 analytically  !
 ! D184  D(24,30,32,70)        -57.4649         calculate D2E/DX2 analytically  !
 ! D185  D(24,30,32,71)         63.8455         calculate D2E/DX2 analytically  !
 ! D186  D(24,30,32,72)       -176.2579         calculate D2E/DX2 analytically  !
 ! D187  D(34,30,32,70)         63.6994         calculate D2E/DX2 analytically  !
 ! D188  D(34,30,32,71)       -174.9902         calculate D2E/DX2 analytically  !
 ! D189  D(34,30,32,72)        -55.0936         calculate D2E/DX2 analytically  !
 ! D190  D(66,30,32,70)       -178.0268         calculate D2E/DX2 analytically  !
 ! D191  D(66,30,32,71)        -56.7164         calculate D2E/DX2 analytically  !
 ! D192  D(66,30,32,72)         63.1801         calculate D2E/DX2 analytically  !
 ! D193  D(24,30,34,67)       -176.7167         calculate D2E/DX2 analytically  !
 ! D194  D(24,30,34,68)        -56.605          calculate D2E/DX2 analytically  !
 ! D195  D(24,30,34,69)         64.6061         calculate D2E/DX2 analytically  !
 ! D196  D(32,30,34,67)         60.9861         calculate D2E/DX2 analytically  !
 ! D197  D(32,30,34,68)       -178.9021         calculate D2E/DX2 analytically  !
 ! D198  D(32,30,34,69)        -57.691          calculate D2E/DX2 analytically  !
 ! D199  D(66,30,34,67)        -57.8615         calculate D2E/DX2 analytically  !
 ! D200  D(66,30,34,68)         62.2503         calculate D2E/DX2 analytically  !
 ! D201  D(66,30,34,69)       -176.5386         calculate D2E/DX2 analytically  !
 ! D202  D(25,31,33,51)        174.5894         calculate D2E/DX2 analytically  !
 ! D203  D(25,31,33,52)        -66.5308         calculate D2E/DX2 analytically  !
 ! D204  D(25,31,33,53)         53.9538         calculate D2E/DX2 analytically  !
 ! D205  D(35,31,33,51)        -61.6221         calculate D2E/DX2 analytically  !
 ! D206  D(35,31,33,52)         57.2577         calculate D2E/DX2 analytically  !
 ! D207  D(35,31,33,53)        177.7423         calculate D2E/DX2 analytically  !
 ! D208  D(47,31,33,51)         55.9722         calculate D2E/DX2 analytically  !
 ! D209  D(47,31,33,52)        174.852          calculate D2E/DX2 analytically  !
 ! D210  D(47,31,33,53)        -64.6634         calculate D2E/DX2 analytically  !
 ! D211  D(25,31,35,48)        -63.5653         calculate D2E/DX2 analytically  !
 ! D212  D(25,31,35,49)         58.0865         calculate D2E/DX2 analytically  !
 ! D213  D(25,31,35,50)        176.9973         calculate D2E/DX2 analytically  !
 ! D214  D(33,31,35,48)        173.9837         calculate D2E/DX2 analytically  !
 ! D215  D(33,31,35,49)        -64.3645         calculate D2E/DX2 analytically  !
 ! D216  D(33,31,35,50)         54.5463         calculate D2E/DX2 analytically  !
 ! D217  D(47,31,35,48)         55.2586         calculate D2E/DX2 analytically  !
 ! D218  D(47,31,35,49)        176.9103         calculate D2E/DX2 analytically  !
 ! D219  D(47,31,35,50)        -64.1789         calculate D2E/DX2 analytically  !
 ! D220  D(27,36,37,38)         67.8829         calculate D2E/DX2 analytically  !
 ! D221  D(27,36,37,40)       -172.9144         calculate D2E/DX2 analytically  !
 ! D222  D(27,36,37,54)        -53.4196         calculate D2E/DX2 analytically  !
 ! D223  D(36,37,38,19)         43.5745         calculate D2E/DX2 analytically  !
 ! D224  D(36,37,38,22)       -138.3231         calculate D2E/DX2 analytically  !
 ! D225  D(40,37,38,19)        -72.4407         calculate D2E/DX2 analytically  !
 ! D226  D(40,37,38,22)        105.6617         calculate D2E/DX2 analytically  !
 ! D227  D(54,37,38,19)        162.2852         calculate D2E/DX2 analytically  !
 ! D228  D(54,37,38,22)        -19.6125         calculate D2E/DX2 analytically  !
 ! D229  D(36,37,40,42)       -177.3048         calculate D2E/DX2 analytically  !
 ! D230  D(36,37,40,44)         59.1153         calculate D2E/DX2 analytically  !
 ! D231  D(36,37,40,55)        -59.2966         calculate D2E/DX2 analytically  !
 ! D232  D(38,37,40,42)        -61.3253         calculate D2E/DX2 analytically  !
 ! D233  D(38,37,40,44)        175.0948         calculate D2E/DX2 analytically  !
 ! D234  D(38,37,40,55)         56.6829         calculate D2E/DX2 analytically  !
 ! D235  D(54,37,40,42)         64.8079         calculate D2E/DX2 analytically  !
 ! D236  D(54,37,40,44)        -58.772          calculate D2E/DX2 analytically  !
 ! D237  D(54,37,40,55)       -177.1839         calculate D2E/DX2 analytically  !
 ! D238  D(37,40,42,59)        -63.1906         calculate D2E/DX2 analytically  !
 ! D239  D(37,40,42,60)         58.8111         calculate D2E/DX2 analytically  !
 ! D240  D(37,40,42,61)        178.4084         calculate D2E/DX2 analytically  !
 ! D241  D(44,40,42,59)         60.4479         calculate D2E/DX2 analytically  !
 ! D242  D(44,40,42,60)       -177.5505         calculate D2E/DX2 analytically  !
 ! D243  D(44,40,42,61)        -57.9531         calculate D2E/DX2 analytically  !
 ! D244  D(55,40,42,59)       -179.6613         calculate D2E/DX2 analytically  !
 ! D245  D(55,40,42,60)        -57.6596         calculate D2E/DX2 analytically  !
 ! D246  D(55,40,42,61)         61.9378         calculate D2E/DX2 analytically  !
 ! D247  D(37,40,44,56)       -178.2265         calculate D2E/DX2 analytically  !
 ! D248  D(37,40,44,57)        -58.2698         calculate D2E/DX2 analytically  !
 ! D249  D(37,40,44,58)         62.8548         calculate D2E/DX2 analytically  !
 ! D250  D(42,40,44,56)         58.0542         calculate D2E/DX2 analytically  !
 ! D251  D(42,40,44,57)        178.0109         calculate D2E/DX2 analytically  !
 ! D252  D(42,40,44,58)        -60.8645         calculate D2E/DX2 analytically  !
 ! D253  D(55,40,44,56)        -61.597          calculate D2E/DX2 analytically  !
 ! D254  D(55,40,44,57)         58.3597         calculate D2E/DX2 analytically  !
 ! D255  D(55,40,44,58)        179.4844         calculate D2E/DX2 analytically  !
 ! D256  D(16,41,43,97)         61.5321         calculate D2E/DX2 analytically  !
 ! D257  D(16,41,43,98)       -178.9905         calculate D2E/DX2 analytically  !
 ! D258  D(16,41,43,99)        -60.1433         calculate D2E/DX2 analytically  !
 ! D259  D(45,41,43,97)       -175.4413         calculate D2E/DX2 analytically  !
 ! D260  D(45,41,43,98)        -55.964          calculate D2E/DX2 analytically  !
 ! D261  D(45,41,43,99)         62.8832         calculate D2E/DX2 analytically  !
 ! D262  D(93,41,43,97)        -55.3429         calculate D2E/DX2 analytically  !
 ! D263  D(93,41,43,98)         64.1345         calculate D2E/DX2 analytically  !
 ! D264  D(93,41,43,99)       -177.0183         calculate D2E/DX2 analytically  !
 ! D265  D(16,41,45,94)         63.0            calculate D2E/DX2 analytically  !
 ! D266  D(16,41,45,95)       -177.9617         calculate D2E/DX2 analytically  !
 ! D267  D(16,41,45,96)        -58.286          calculate D2E/DX2 analytically  !
 ! D268  D(43,41,45,94)        -59.8671         calculate D2E/DX2 analytically  !
 ! D269  D(43,41,45,95)         59.1712         calculate D2E/DX2 analytically  !
 ! D270  D(43,41,45,96)        178.8469         calculate D2E/DX2 analytically  !
 ! D271  D(93,41,45,94)       -179.6019         calculate D2E/DX2 analytically  !
 ! D272  D(93,41,45,95)        -60.5636         calculate D2E/DX2 analytically  !
 ! D273  D(93,41,45,96)         59.1121         calculate D2E/DX2 analytically  !
 --------------------------------------------------------------------------------
 Trust Radius=3.00D-01 FncErr=1.00D-07 GrdErr=1.00D-07
 Number of steps in this run=      2 maximum allowed number of steps=      2.
 GradGradGradGradGradGradGradGradGradGradGradGradGradGradGradGradGradGrad

 Symmetry turned off by external request.
 Stoichiometry    C33H57LiN3O9(1+)
 Framework group  C1[X(C33H57LiN3O9)]
 Deg. of freedom   303
 Full point group                 C1      NOp   1
                          Input orientation:                          
 ---------------------------------------------------------------------
 Center     Atomic      Atomic             Coordinates (Angstroms)
 Number     Number       Type             X           Y           Z
 ---------------------------------------------------------------------
      1          7           0       -3.038827   12.643280   12.646127
      2          6           0       -3.878391   13.613074   11.903502
      3          6           0       -3.345681   15.024921   12.210920
      4          8           0       -3.503810   15.604860   13.281264
      5          6           0       -2.914655   12.788645   14.107432
      6          6           0       -5.398045   13.523547   12.217586
      7          6           0       -5.926219   12.094903   12.008324
      8          6           0       -6.174388   14.529555   11.344168
      9          8           0       -2.665402   15.552749   11.150903
     10          6           0       -1.334311   10.816475   12.690652
     11          6           0       -2.322524   11.720316   11.908714
     12          8           0       -2.450584   11.559356   10.686854
     13          6           0       -1.803949    9.344147   12.742077
     14          6           0       -3.183344    9.213784   13.415448
     15          6           0       -0.771788    8.444489   13.447802
     16          6           0       -2.143603   16.914143   11.323928
     17          8           0       -0.025924   10.771953   12.001971
     18          8           0        0.070007   16.291445   10.616025
     19          8           0        2.438151   14.190134   10.165922
     20          8           0        1.689408   15.193402   13.447691
     21          8           0       -0.012116   12.978290   11.432342
     22          7           0        2.832382   12.501151   11.667576
     23          7           0       -0.035095   17.333142   12.641120
     24          6           0        1.930653   11.619852   10.875273
     25          6           0        1.443344   17.488672   12.580260
     26          6           0        0.512565   11.856102   11.448591
     27          6           0        2.116681   16.112688   12.756355
     28          6           0        3.232927   12.084474   13.026680
     29          6           0       -0.721817   17.465181   13.940369
     30          6           0        2.403048   10.152841   10.734236
     31          6           0        1.957938   18.593768   13.553170
     32          6           0        3.897392   10.083795   10.364957
     33          6           0        1.417030   19.969493   13.113351
     34          6           0        1.554756    9.447318    9.653154
     35          6           0        3.496609   18.629978   13.626026
     36          8           0        3.243826   16.040749   12.000262
     37          6           0        3.927704   14.748845   11.968110
     38          6           0        2.997475   13.776723   11.214791
     39          6           0       -0.625281   16.796598   11.536919
     40          6           0        5.255568   14.968820   11.204320
     41          6           0       -2.439866   17.712702   10.031620
     42          6           0        6.031567   13.645839   11.052493
     43          6           0       -1.842343   19.130933   10.128642
     44          6           0        6.121148   16.032241   11.904045
     45          6           0       -3.954261   17.769221    9.764351
     46          1           0        1.678729   17.806714   11.550309
     47          1           0        1.584896   18.364228   14.568628
     48          1           0        3.921857   17.699501   14.038331
     49          1           0        3.943290   18.801061   12.630301
     50          1           0        3.810353   19.459882   14.282420
     51          1           0        1.696288   20.742078   13.850351
     52          1           0        1.850739   20.261834   12.139175
     53          1           0        0.318713   19.982788   13.007786
     54          1           0        4.118997   14.429680   13.005520
     55          1           0        4.975904   15.334117   10.197592
     56          1           0        7.048323   16.198341   11.328451
     57          1           0        5.595121   16.996180   11.989977
     58          1           0        6.411598   15.702514   12.919296
     59          1           0        6.327688   13.238588   12.037500
     60          1           0        5.454070   12.873651   10.515171
     61          1           0        6.958506   13.823179   10.481152
     62          1           0        4.329461   12.045205   13.126027
     63          1           0        2.809837   12.773359   13.776727
     64          1           0        2.841278   11.074668   13.212267
     65          1           0        1.920140   12.072677    9.867401
     66          1           0        2.245224    9.622632   11.692514
     67          1           0        1.842554    8.384274    9.584622
     68          1           0        0.475248    9.491649    9.871102
     69          1           0        1.727118    9.904431    8.660946
     70          1           0        4.100499   10.634668    9.427922
     71          1           0        4.550223   10.497920   11.152116
     72          1           0        4.194287    9.033045   10.204338
     73          1           0       -1.112096   11.197599   13.700441
     74          1           0       -1.904433    9.029498   11.685276
     75          1           0        0.213204    8.478166   12.954890
     76          1           0       -0.642316    8.743718   14.505155
     77          1           0       -1.119235    7.396734   13.438599
     78          1           0       -3.146758    9.513074   14.479323
     79          1           0       -3.955792    9.814040   12.905753
     80          1           0       -3.510115    8.160416   13.384833
     81          1           0       -1.923342   13.181233   14.399637
     82          1           0       -3.666952   13.511262   14.449622
     83          1           0       -3.099028   11.831991   14.621039
     84          1           0       -6.043582   14.305782   10.268984
     85          1           0       -7.253556   14.474357   11.568670
     86          1           0       -5.854826   15.571711   11.522221
     87          1           0       -5.437218   11.374882   12.686074
     88          1           0       -7.011308   12.058686   12.208783
     89          1           0       -5.760091   11.754697   10.970117
     90          1           0       -5.545771   13.810707   13.277178
     91          1           0       -3.708321   13.383047   10.839735
     92          1           0       -2.661776   17.374294   12.177664
     93          1           0       -1.943265   17.176405    9.201338
     94          1           0       -4.483369   18.306425   10.573663
     95          1           0       -4.148548   18.309582    8.821591
     96          1           0       -4.391148   16.761416    9.672325
     97          1           0       -0.743891   19.117805   10.239945
     98          1           0       -2.074727   19.697059    9.210517
     99          1           0       -2.271623   19.689333   10.981300
    100          1           0       -0.145210   16.903618   14.693491
    101          1           0       -0.808704   18.518249   14.254150
    102          1           0       -1.720323   17.010280   13.885055
    103          3           0        0.542174   14.497147   10.299027
 ---------------------------------------------------------------------
 Rotational constants (GHZ):      0.0779443      0.0671307      0.0418354
 General basis read from cards:  (5D, 7F)
   758 basis functions,  1508 primitive gaussians,   803 cartesian basis functions
   175 alpha electrons      175 beta electrons
       nuclear repulsion energy      6751.1240245365 Hartrees.
 NAtoms=  103 NActive=  103 NUniq=  103 SFac= 1.00D+00 NAtFMM=   60 NAOKFM=T Big=T
 Integral buffers will be    131072 words long.
 Raffenetti 2 integral format.
 Two-electron integral symmetry is turned off.
 Force inversion solution in PCM.
 ------------------------------------------------------------------------------
 Polarizable Continuum Model (PCM)
 =================================
 Model                : PCM (using non-symmetric T matrix).
 Atomic radii         : UFF (Universal Force Field).
 Polarization charges : Total charges.
 Charge compensation  : None.
 Solution method      : Matrix inversion.
 Cavity type          : Scaled VdW (van der Waals Surface) (Alpha=1.100).
 Cavity algorithm     : GePol (No added spheres)
                        Default sphere list used, NSphG=  103.
                        Lebedev-Laikov grids with approx.  5.0 points / Ang**2.
                        Smoothing algorithm: Karplus/York (Gamma=1.0000).
                        Polarization charges: spherical gaussians, with
                                              point-specific exponents (IZeta= 3).
                        Self-potential: point-specific (ISelfS= 7).
                        Self-field    : sphere-specific E.n sum rule (ISelfD= 2).
 1st derivatives      : Analytical E(r).r(x)/FMM algorithm (CHGder, D1EAlg=3).
                        Cavity 1st derivative terms included.
 2nd derivatives      : Analytical E(r).r(xy)/FMM algorithm (CHGder, D2EAlg=3).
                        Cavity 2nd derivative terms included.
 Solvent              : n-Pentadecane, Eps=   2.033300 Eps(inf)=   2.049192
 ------------------------------------------------------------------------------
 One-electron integrals computed using PRISM.
 NBasis=   758 RedAO= T EigKep=  2.10D-03  NBF=   758
 NBsUse=   758 1.00D-06 EigRej= -1.00D+00 NBFU=   758
 Initial guess from the checkpoint file:  "nP_EB11Li.chk"
 B after Tr=     0.000000    0.000000    0.000000
         Rot=    1.000000    0.000000    0.000000    0.000000 Ang=   0.00 deg.
 Requested convergence on RMS density matrix=1.00D-08 within 128 cycles.
 Requested convergence on MAX density matrix=1.00D-06.
 Requested convergence on             energy=1.00D-06.
 No special actions if energy rises.
 Inv3:  Mode=1 IEnd=    99947952.
 Iteration    1 A*A^-1 deviation from unit magnitude is 4.00D-15 for   2825.
 Iteration    1 A*A^-1 deviation from orthogonality  is 3.02D-15 for   4927   3338.
 Iteration    1 A^-1*A deviation from unit magnitude is 3.77D-15 for   3365.
 Iteration    1 A^-1*A deviation from orthogonality  is 5.56D-15 for   4380   4347.
 Error on total polarization charges =  0.00786
 SCF Done:  E(RB-P86) =  -2140.60622986     A.U. after    1 cycles
            NFock=  1  Conv=0.26D-08     -V/T= 2.0078
 QCSCF skips out because SCF is already converged.
 Range of M.O.s used for correlation:     1   758
 NBasis=   758 NAE=   175 NBE=   175 NFC=     0 NFV=     0
 NROrb=    758 NOA=   175 NOB=   175 NVA=   583 NVB=   583
 Symmetrizing basis deriv contribution to polar:
 IMax=3 JMax=2 DiffMx= 0.00D+00
 G2DrvN: will do   104 centers at a time, making    1 passes.
 Calling FoFCou, ICntrl=  3507 FMM=T I1Cent=   0 AccDes= 0.00D+00.
 NEqPCM:  Using equilibrium solvation (IEInf=0, Eps=   2.0333, EpsInf=   2.0492)
 G2PCM: DoFxE=T DoFxN=T DoGrad=T DoDP/DQ/DG/TGxP=FFFF NFrqRd=   0 IEInf=0 SqF1=F DoCFld=F IF1Alg=4.
 End of G2Drv F.D. properties file   721 does not exist.
 End of G2Drv F.D. properties file   722 does not exist.
 End of G2Drv F.D. properties file   788 does not exist.
          IDoAtm=11111111111111111111111111111111111111111111111111
          IDoAtm=11111111111111111111111111111111111111111111111111
          IDoAtm=111
 NEqPCM:  Using equilibrium solvation (IEInf=0, Eps=   2.0333, EpsInf=   2.0492)
          Differentiating once with respect to electric field.
                with respect to dipole field.
          Differentiating once with respect to nuclear coordinates.
 CalDSu exits because no D1Ps are significant.
          There are   312 degrees of freedom in the 1st order CPHF.  IDoFFX=6 NUNeed=     3.
    312 vectors produced by pass  0 Test12= 1.02D-13 1.00D-09 XBig12= 4.63D+02 4.87D+00.
 AX will form    72 AO Fock derivatives at one time.
    309 vectors produced by pass  1 Test12= 1.02D-13 1.00D-09 XBig12= 2.60D+02 2.73D+00.
    309 vectors produced by pass  2 Test12= 1.02D-13 1.00D-09 XBig12= 7.22D-01 7.31D-02.
    309 vectors produced by pass  3 Test12= 1.02D-13 1.00D-09 XBig12= 7.20D-04 1.11D-03.
    171 vectors produced by pass  4 Test12= 1.02D-13 1.00D-09 XBig12= 9.96D-08 1.21D-05.
      6 vectors produced by pass  5 Test12= 1.02D-13 1.00D-09 XBig12= 9.17D-12 8.66D-08.
      1 vectors produced by pass  6 Test12= 1.02D-13 1.00D-09 XBig12= 1.44D-15 1.78D-09.
 InvSVY:  IOpt=1 It=  1 EMax= 2.49D-14
 Solved reduced A of dimension  1417 with   312 vectors.
 Isotropic polarizability for W=    0.000000      462.56 Bohr**3.
 End of Minotr F.D. properties file   721 does not exist.
 End of Minotr F.D. properties file   722 does not exist.
 End of Minotr F.D. properties file   788 does not exist.

 **********************************************************************

            Population analysis using the SCF density.

 **********************************************************************

 Alpha  occ. eigenvalues --  -18.91501 -18.89939 -18.89902 -18.86466 -18.85000
 Alpha  occ. eigenvalues --  -18.84451 -18.84315 -18.84261 -18.81210 -14.13594
 Alpha  occ. eigenvalues --  -14.13146 -14.10945 -10.11512 -10.09752 -10.09207
 Alpha  occ. eigenvalues --  -10.08475 -10.08220 -10.06000 -10.03907 -10.03693
 Alpha  occ. eigenvalues --  -10.03195 -10.02659 -10.02088 -10.00502 -10.00421
 Alpha  occ. eigenvalues --   -9.99344  -9.98750  -9.98111  -9.97911  -9.97588
 Alpha  occ. eigenvalues --   -9.97307  -9.97136  -9.96430  -9.94847  -9.94734
 Alpha  occ. eigenvalues --   -9.94644  -9.94637  -9.94517  -9.94438  -9.94379
 Alpha  occ. eigenvalues --   -9.94204  -9.94178  -9.93913  -9.93726  -9.93420
 Alpha  occ. eigenvalues --   -1.87403  -1.08793  -1.07398  -1.06774  -1.02359
 Alpha  occ. eigenvalues --   -1.02119  -1.00510  -0.99257  -0.98939  -0.98507
 Alpha  occ. eigenvalues --   -0.92989  -0.92403  -0.90601  -0.80972  -0.80124
 Alpha  occ. eigenvalues --   -0.79683  -0.78633  -0.78414  -0.77543  -0.73297
 Alpha  occ. eigenvalues --   -0.72914  -0.72220  -0.71546  -0.71030  -0.70209
 Alpha  occ. eigenvalues --   -0.69220  -0.68814  -0.66883  -0.66599  -0.66494
 Alpha  occ. eigenvalues --   -0.66362  -0.66148  -0.66068  -0.65543  -0.61736
 Alpha  occ. eigenvalues --   -0.59930  -0.59409  -0.58180  -0.58035  -0.57489
 Alpha  occ. eigenvalues --   -0.56890  -0.55725  -0.54963  -0.54820  -0.54238
 Alpha  occ. eigenvalues --   -0.54019  -0.53325  -0.53039  -0.52606  -0.52104
 Alpha  occ. eigenvalues --   -0.51374  -0.50669  -0.50598  -0.50282  -0.49376
 Alpha  occ. eigenvalues --   -0.48829  -0.48113  -0.47842  -0.47547  -0.46912
 Alpha  occ. eigenvalues --   -0.46705  -0.46297  -0.45666  -0.45281  -0.45026
 Alpha  occ. eigenvalues --   -0.44611  -0.44279  -0.44163  -0.43790  -0.43745
 Alpha  occ. eigenvalues --   -0.43570  -0.43179  -0.42597  -0.42433  -0.42041
 Alpha  occ. eigenvalues --   -0.41863  -0.41434  -0.41257  -0.40951  -0.40719
 Alpha  occ. eigenvalues --   -0.40501  -0.40284  -0.40147  -0.40022  -0.39845
 Alpha  occ. eigenvalues --   -0.39679  -0.39469  -0.39238  -0.39038  -0.38889
 Alpha  occ. eigenvalues --   -0.38723  -0.38397  -0.38309  -0.38240  -0.38146
 Alpha  occ. eigenvalues --   -0.38043  -0.37982  -0.37657  -0.37310  -0.37032
 Alpha  occ. eigenvalues --   -0.36473  -0.35793  -0.35664  -0.35209  -0.35105
 Alpha  occ. eigenvalues --   -0.34909  -0.34888  -0.34637  -0.34527  -0.34451
 Alpha  occ. eigenvalues --   -0.34287  -0.34170  -0.34125  -0.34075  -0.33885
 Alpha  occ. eigenvalues --   -0.33662  -0.33524  -0.33061  -0.32967  -0.32627
 Alpha  occ. eigenvalues --   -0.32234  -0.31619  -0.30100  -0.29542  -0.29248
 Alpha  occ. eigenvalues --   -0.28746  -0.28202  -0.27893  -0.26033  -0.25591
 Alpha virt. eigenvalues --   -0.12365  -0.11251  -0.10123  -0.09824  -0.09558
 Alpha virt. eigenvalues --   -0.07518  -0.03648  -0.01064  -0.00498   0.00108
 Alpha virt. eigenvalues --    0.00586   0.01115   0.01727   0.01839   0.02304
 Alpha virt. eigenvalues --    0.02495   0.02700   0.03061   0.03411   0.03702
 Alpha virt. eigenvalues --    0.03806   0.04034   0.04244   0.04583   0.04722
 Alpha virt. eigenvalues --    0.05045   0.05149   0.05510   0.05522   0.05617
 Alpha virt. eigenvalues --    0.05983   0.06207   0.06511   0.06687   0.06799
 Alpha virt. eigenvalues --    0.06921   0.07245   0.07333   0.07515   0.07741
 Alpha virt. eigenvalues --    0.07971   0.08073   0.08341   0.08647   0.08822
 Alpha virt. eigenvalues --    0.09056   0.09405   0.09477   0.09765   0.09906
 Alpha virt. eigenvalues --    0.10115   0.10197   0.10414   0.10467   0.10576
 Alpha virt. eigenvalues --    0.10793   0.11032   0.11193   0.11445   0.11531
 Alpha virt. eigenvalues --    0.11708   0.11927   0.11957   0.12466   0.12547
 Alpha virt. eigenvalues --    0.12629   0.12862   0.13032   0.13257   0.13391
 Alpha virt. eigenvalues --    0.13557   0.13701   0.13885   0.14377   0.14689
 Alpha virt. eigenvalues --    0.14840   0.14958   0.15122   0.15272   0.15315
 Alpha virt. eigenvalues --    0.15713   0.16148   0.16320   0.16509   0.16625
 Alpha virt. eigenvalues --    0.16834   0.16960   0.17160   0.17281   0.17462
 Alpha virt. eigenvalues --    0.17630   0.17898   0.18050   0.18207   0.18603
 Alpha virt. eigenvalues --    0.18721   0.18967   0.19702   0.20046   0.20985
 Alpha virt. eigenvalues --    0.21100   0.22511   0.22961   0.24400   0.26406
 Alpha virt. eigenvalues --    0.27067   0.28372   0.29093   0.30096   0.30911
 Alpha virt. eigenvalues --    0.31069   0.32976   0.34070   0.36706   0.37447
 Alpha virt. eigenvalues --    0.38420   0.38695   0.38902   0.39438   0.39828
 Alpha virt. eigenvalues --    0.40256   0.40623   0.40937   0.41275   0.41550
 Alpha virt. eigenvalues --    0.42078   0.42686   0.42723   0.43091   0.43297
 Alpha virt. eigenvalues --    0.43448   0.43929   0.44045   0.44779   0.45015
 Alpha virt. eigenvalues --    0.45134   0.45345   0.46024   0.46069   0.46290
 Alpha virt. eigenvalues --    0.46914   0.47222   0.47819   0.47904   0.48169
 Alpha virt. eigenvalues --    0.48450   0.49053   0.49504   0.50109   0.50353
 Alpha virt. eigenvalues --    0.50542   0.51017   0.51199   0.51589   0.51818
 Alpha virt. eigenvalues --    0.51869   0.52737   0.53137   0.53540   0.54322
 Alpha virt. eigenvalues --    0.54692   0.54917   0.55151   0.55608   0.55709
 Alpha virt. eigenvalues --    0.56086   0.56797   0.57130   0.57678   0.58506
 Alpha virt. eigenvalues --    0.58822   0.59031   0.59508   0.59821   0.60068
 Alpha virt. eigenvalues --    0.60559   0.60571   0.60861   0.61186   0.61451
 Alpha virt. eigenvalues --    0.61905   0.62129   0.63138   0.63365   0.63759
 Alpha virt. eigenvalues --    0.64118   0.66371   0.66662   0.66744   0.67074
 Alpha virt. eigenvalues --    0.67699   0.68121   0.68715   0.68938   0.69376
 Alpha virt. eigenvalues --    0.69760   0.69805   0.70346   0.70701   0.70894
 Alpha virt. eigenvalues --    0.71198   0.71571   0.71964   0.72111   0.72226
 Alpha virt. eigenvalues --    0.72670   0.73237   0.73398   0.73657   0.74099
 Alpha virt. eigenvalues --    0.74610   0.74940   0.75507   0.75622   0.76038
 Alpha virt. eigenvalues --    0.76607   0.76756   0.77046   0.77434   0.77682
 Alpha virt. eigenvalues --    0.77982   0.78316   0.78486   0.78722   0.79133
 Alpha virt. eigenvalues --    0.79417   0.79536   0.79780   0.79910   0.80362
 Alpha virt. eigenvalues --    0.80539   0.80641   0.80830   0.81092   0.81251
 Alpha virt. eigenvalues --    0.81433   0.81646   0.81815   0.82263   0.82487
 Alpha virt. eigenvalues --    0.82656   0.82911   0.83305   0.83709   0.84104
 Alpha virt. eigenvalues --    0.84208   0.84563   0.84643   0.85191   0.85289
 Alpha virt. eigenvalues --    0.85859   0.85953   0.86535   0.86641   0.87307
 Alpha virt. eigenvalues --    0.87521   0.87550   0.87886   0.87990   0.88396
 Alpha virt. eigenvalues --    0.89304   0.89488   0.89760   0.90173   0.90467
 Alpha virt. eigenvalues --    0.91019   0.91343   0.91789   0.92078   0.92272
 Alpha virt. eigenvalues --    0.92797   0.93330   0.93768   0.93980   0.94421
 Alpha virt. eigenvalues --    0.95332   0.95874   0.96105   0.96602   0.97017
 Alpha virt. eigenvalues --    0.97923   0.98450   0.98613   0.99459   1.00275
 Alpha virt. eigenvalues --    1.00663   1.00819   1.01676   1.02143   1.02484
 Alpha virt. eigenvalues --    1.03302   1.03659   1.03943   1.04294   1.05318
 Alpha virt. eigenvalues --    1.05415   1.06705   1.07584   1.08381   1.08827
 Alpha virt. eigenvalues --    1.09140   1.10543   1.10759   1.11170   1.11845
 Alpha virt. eigenvalues --    1.12361   1.12858   1.13361   1.14734   1.15760
 Alpha virt. eigenvalues --    1.16573   1.17110   1.17948   1.18492   1.19945
 Alpha virt. eigenvalues --    1.20855   1.21306   1.22109   1.23299   1.24218
 Alpha virt. eigenvalues --    1.24979   1.26282   1.26452   1.27352   1.28236
 Alpha virt. eigenvalues --    1.28812   1.29334   1.30920   1.31201   1.32870
 Alpha virt. eigenvalues --    1.33240   1.33928   1.34560   1.34728   1.34935
 Alpha virt. eigenvalues --    1.35662   1.36258   1.37144   1.37630   1.38173
 Alpha virt. eigenvalues --    1.38283   1.39118   1.39402   1.39691   1.40580
 Alpha virt. eigenvalues --    1.41007   1.41740   1.42237   1.43640   1.43997
 Alpha virt. eigenvalues --    1.44418   1.45409   1.46724   1.47567   1.48455
 Alpha virt. eigenvalues --    1.49826   1.50069   1.50482   1.51342   1.52389
 Alpha virt. eigenvalues --    1.53087   1.53556   1.53844   1.54676   1.54934
 Alpha virt. eigenvalues --    1.56188   1.56907   1.57370   1.57855   1.58445
 Alpha virt. eigenvalues --    1.58895   1.59628   1.59738   1.60670   1.61248
 Alpha virt. eigenvalues --    1.61774   1.62705   1.62847   1.63223   1.63779
 Alpha virt. eigenvalues --    1.64753   1.65193   1.65615   1.66180   1.67092
[...]
 00000178,0.00000654,-0.00000816,-0.00000129,-0.00000485,0.00000951,-0.
 00000380,0.00000413,-0.00000213,0.00000259,-0.00000266,0.00000239,-0.0
 0000039,-0.00000449,-0.00000528,-0.00000405,-0.00000091,-0.00000177,0.
 00000194,-0.00000030,-0.00000123,0.00000291,-0.00000271,-0.00000055,-0
 .00000264,-0.00000401,0.00000143,0.00000089,0.00000384,-0.00001207,0.0
 0000763,0.00000253,0.00000314,0.00000205,-0.00000524,-0.00000307,0.000
 00116,-0.00000099,-0.00000297,-0.00000077,-0.00000336,0.00001047,-0.00
 000402,-0.00000054,-0.00000885,0.00000713,-0.00001498,-0.00000909,-0.0
 0000581,-0.00000098,0.00001357,0.00000129,0.00007942,-0.00007908,0.000
 05644,-0.00008100,-0.00008471,0.00005882,0.00002328,0.00005677,0.00002
 357,0.00000346,0.00000616,0.00001474,0.00003078,0.00000690,0.00001430,
 -0.00003080,0.00003718,-0.00002026,-0.00001242,-0.00000612,0.00000074,
 0.00002506,0.00002338,0.00000142,-0.00000352,0.00000932,0.00000380,-0.
 00003423,-0.00002427,0.00002076,0.00005393,0.00011470,0.00000437,0.000
 87507,0.00034986,0.00054247,-0.00002318,0.00005229,-0.00013250,0.00001
 983,-0.00001510,-0.00000235,0.00000803,-0.00001481,-0.00000926,-0.0000
 3397,-0.00001550,-0.00003776,-0.00000954,-0.00001781,0.00000052,-0.000
 00127,-0.00003484,-0.00004187,0.00003326,-0.00006475,-0.00000223,0.015
 63255,0.00743443,0.00045668,-0.02660338,-0.00964133,-0.00205908,0.1073
 9577,0.09561727,-0.00000977,0.00011752,-0.00002559,-0.00001235,-0.0000
 6781,0.00012047,-0.00053854,-0.00123332,-0.00128032,0.00089920,0.00107
 795,-0.00007406,0.00005873,0.00003996,0.00010287,-0.00008360,0.0000569
 0,0.00003692,0.00003836,-0.00002655,-0.00000426,0.00000696,-0.00001529
 ,-0.00001614,-0.00014491,0.00017136,0.00025057,0.00002025,-0.00000124,
 0.00003445,0.00007260,-0.00004912,-0.00009075,-0.00003613,0.00004653,0
 .00000948,-0.00001144,-0.00000622,-0.00000712,0.00000426,0.,0.00001083
 ,0.00000557,0.00000531,0.00000656,-0.00006777,-0.00087183,-0.00256424,
 -0.00003589,0.00000263,-0.00000451,-0.00015276,-0.00007013,-0.00052123
 ,-0.00001910,-0.00002208,-0.00001973,-0.00007414,-0.00018500,0.0002282
 9,-0.00004501,-0.00000018,-0.00002196,-0.00001419,-0.00002509,-0.00001
 082,0.03193306,0.01097002,-0.00215583,0.00000672,0.00000875,0.00001889
 ,-0.00010133,0.00017930,-0.00507058,0.00003647,-0.00000015,-0.00000378
 ,-0.00001114,0.00070616,-0.00035193,-0.00000282,-0.00000082,0.00000617
 ,-0.02267567,-0.01135530,-0.04801148,-0.00000557,-0.00000039,0.0000000
 3,-0.00066835,-0.00046902,-0.00113357,0.00000069,0.00000021,0.00000117
 ,0.00001220,0.00011228,0.00015750,0.00000344,-0.00000152,0.00000093,0.
 00002266,0.00004289,0.00041096,0.00019835,-0.00030942,-0.00001129,-0.0
 0004304,0.00006173,0.00000875,0.00003403,0.00002829,0.00001780,0.00224
 832,0.00082970,0.00150333,-0.00000761,-0.00002436,0.00000491,-0.000155
 52,0.00046415,-0.00003613,0.00001250,0.00001327,-0.00000522,0.00011081
 ,0.00004685,0.00003635,0.00000005,-0.00000182,-0.00000481,-0.00005851,
 -0.00006253,0.00008770,0.00149740,0.00002989,-0.00007651,-0.00017017,-
 0.00003643,0.00079309,-0.00000736,0.00000859,-0.00002049,-0.00018030,-
 0.00003051,0.00001726,0.00004620,0.00000546,0.00001564,-0.00001779,0.0
 0004653,-0.00000824,-0.00000651,-0.00009109,0.00004136,-0.00001165,0.0
 0001679,-0.00006243,0.00000627,-0.00002398,0.00000039,0.00000071,0.000
 00399,0.00000208,0.00000398,0.00000139,0.00000100,-0.00000381,-0.00000
 499,-0.00000485,0.00000140,-0.00000246,0.00000200,-0.00000087,-0.00000
 147,0.00000080,-0.00000186,0.00000005,0.00000100,0.00000515,-0.0000050
 3,-0.00000174,0.00000066,0.00000069,-0.00000263,-0.00000282,0.00000099
 ,-0.00000380,-0.00000047,-0.00000041,0.00000192,0.00000015,0.00000420,
 -0.00000094,0.00000117,0.00000025,-0.00000093,-0.00000130,-0.00000039,
 -0.00000103,-0.00000143,-0.00000143,0.00000091,0.00000089,0.00000021,-
 0.00000131,0.00000008,0.00000075,0.00000009,-0.00000264,0.00000026,-0.
 00000137,-0.00000052,-0.00000093,-0.00000003,-0.00000695,0.00000520,-0
 .00000897,0.00000135,-0.00000319,-0.00000217,-0.00000120,0.00000025,0.
 00000032,-0.00000060,-0.00000019,-0.00000390,-0.00000263,0.00000211,-0
 .00000200,-0.00000143,-0.00000127,-0.00000528,-0.00000504,-0.00000210,
 -0.00000094,-0.00000063,0.00000211,-0.00000212,-0.00006073,0.00003451,
 -0.00001070,0.00003041,-0.00002800,0.00007003,-0.00003408,0.00000896,-
 0.00002004,-0.00000333,-0.00000180,-0.00000210,0.00001928,0.00001283,0
 .00000512,-0.00002622,0.00002663,-0.00000160,-0.00000666,0.00001017,-0
 .00000221,0.00001499,0.00001880,0.00000260,-0.00000026,0.00000210,-0.0
 0000090,-0.00001266,-0.00002183,0.00000042,0.00002710,0.00003697,-0.00
 002436,-0.00240257,0.00088198,-0.00332357,0.00007017,-0.00009555,0.000
 18229,-0.00000236,0.00000987,-0.00001953,0.00005119,-0.00002230,0.0000
 1898,-0.00001208,0.00001280,-0.00002425,-0.00003441,-0.00002624,-0.000
 01032,-0.00003172,-0.00003911,0.00001685,-0.00002601,0.00002407,-0.000
 02545,-0.01835262,-0.01021789,-0.00009895,-0.00702185,-0.00116260,-0.0
 0030644,0.01585032,0.01039924,0.06122775,0.00011560,0.00018392,-0.0002
 9638,-0.00008730,-0.00010645,0.00024737,-0.00171508,-0.00117134,0.0027
 1934,0.00036340,-0.00017884,-0.00149475,0.00001285,0.00004226,0.000282
 74,-0.00023610,0.00006465,-0.00003022,0.00010389,-0.00006489,-0.000007
 66,0.00004376,0.00001142,-0.00001272,0.00119535,-0.00019454,-0.0011999
 4,0.00000938,-0.00016300,0.00022809,0.00034686,-0.00040427,0.00106862,
 0.00002002,0.00062576,-0.00095489,-0.00012722,-0.00011487,0.00000903,0
 .00000952,0.00001452,0.00000524,0.00009917,0.00004842,0.00000418,-0.00
 003865,0.00106197,0.00055278,-0.00070747,0.00184405,0.00053874,-0.0032
 1585,0.00727880,-0.00118081,-0.01888703,0.00076982,0.00777255,-0.00095
 970,0.00082947,0.00078834,-0.00964138,-0.00374998,0.00295044,-0.000201
 04,-0.00690145,0.00358556,-0.00116034,-0.00114974,-0.00267586,0.000514
 25,0.00171975,0.00099570,0.00160822,-0.00005769,-0.00029356,0.00446276
 ,-0.00314906,-0.00186742,0.00251176,-0.00216428,-0.00191122,-0.0011338
 1,0.00031135,-0.00111107,-0.00055578,0.00022245,0.00001066,-0.00070766
 ,0.00022238,0.00000530,-0.00029540,0.00005157,-0.00016432,0.00000940,-
 0.00000084,0.00010565,0.00011878,0.00004479,0.00009801,0.00031858,-0.0
 0022489,0.00012645,0.00008554,-0.00009508,-0.00001428,-0.00158521,0.00
 130653,0.00173909,0.00041906,-0.00095091,-0.00003278,-0.01026043,0.009
 33399,-0.01609250,-0.00252541,0.00511364,0.00621214,-0.00055178,0.0003
 1601,0.00076643,-0.00012952,0.00023526,0.00010091,0.00001607,0.0001116
 6,-0.00011622,0.00018233,0.00003693,0.00004763,0.00030634,-0.00018858,
 -0.00037439,-0.00006641,-0.00007557,0.00006162,-0.00001722,-0.00008410
 ,0.00001309,0.00003342,0.00000918,0.00004862,-0.00006667,0.00004980,-0
 .00010868,-0.00003237,-0.00007210,0.00004627,-0.00006922,0.00005688,0.
 00002061,-0.00003973,0.00004232,-0.00002693,-0.00000052,-0.00000926,0.
 00000863,-0.00009252,0.00007921,0.00000068,0.00034361,0.00044835,0.000
 40826,-0.00024863,-0.00016063,0.00008349,0.00017304,0.00014404,0.00006
 205,-0.00005543,0.00001763,0.00001103,0.00001984,0.00000630,0.00007112
 ,-0.00002043,-0.00003869,0.00006880,-0.00013485,0.00015255,0.00013041,
 0.00015367,0.00000775,-0.00001833,0.00025950,-0.00005364,0.00028277,0.
 00014606,-0.00011266,0.00046674,0.00012296,-0.00022661,0.00036518,0.00
 022408,0.00140484,0.00028381,0.00015126,-0.00022749,0.00005417,-0.0001
 0717,-0.00010599,-0.00011751,-0.00010495,-0.00005397,-0.00001520,0.000
 01918,0.00003527,-0.00000309,-0.00004616,0.00005147,0.00005814,-0.0001
 7798,0.00008040,-0.00009009,-0.00003156,-0.00012265,-0.00004042,-0.000
 06706,-0.00003030,-0.00005519,0.00001793,-0.00003292,-0.00000626,-0.00
 002307,0.00000737,0.00002382,0.00000124,0.00000082,-0.00002388,-0.0000
 3058,0.00003045,-0.00002280,0.00000438,-0.00001866,-0.00000016,-0.0000
 6596,-0.00001466,-0.00000863,-0.00000084,0.00003015,-0.00000293,-0.000
 02048,-0.00005986,-0.00000246,-0.00003265,-0.00006523,0.00003269,-0.00
 000211,0.00006309,-0.00007395,-0.00004020,-0.00001637,-0.00001612,0.00
 006323,0.00001305,-0.00000914,-0.00005048,0.00005438,0.00000680,-0.000
 03082,0.00000835,-0.00000853,0.00005761,0.00004080,-0.00000134,-0.0000
 2925,-0.00000829,0.00000372,0.00005885,-0.00000907,-0.00003329,-0.0002
 3043,-0.00013895,-0.00004698,0.00001430,-0.00020825,-0.00007576,0.0000
 1235,0.00014270,-0.00029411,0.00005273,-0.00003141,-0.00004738,0.00005
 924,-0.00003507,0.00005515,-0.00010216,0.00000385,-0.00003467,-0.00000
 961,0.00004949,-0.00002797,0.00001192,-0.00008259,0.00003795,-0.000005
 88,-0.00008166,-0.00004589,0.00018721,-0.00002188,-0.00032306,0.000071
 98,-0.00006603,-0.00011357,0.00001230,0.00007605,0.00007664,0.04163081
 ,0.00121882,-0.00143660,-0.00063086,-0.00035025,0.00043003,-0.00028542
 ,0.00148305,0.00181768,-0.00176254,-0.00062832,-0.00067537,0.00064216,
 0.00010221,-0.00011520,0.00036017,0.00003848,-0.00023621,0.00003459,-0
 .00006070,0.00005067,0.00000849,0.00007143,0.00011088,-0.00001666,-0.0
 0177069,-0.00163079,0.00119988,-0.00214720,-0.00039138,0.00126096,-0.0
 0207903,0.00112561,0.00192604,0.00115860,-0.00007338,-0.00123833,0.000
 13433,-0.00034995,-0.00012176,-0.00011921,0.00024817,0.00006070,0.0000
 6221,0.00009892,0.00013537,0.00029895,0.00177468,0.00060290,0.00305022
 ,0.00649590,-0.00214506,0.00552537,-0.02619990,-0.00375193,0.00155214,
 -0.00369585,-0.00107579,0.00078230,-0.00123746,0.00016768,-0.00671257,
 -0.00833685,0.00643291,-0.00121246,-0.00109130,0.00040784,0.00135780,0
 .00394090,0.00615190,0.00092214,-0.00013972,0.00115716,-0.00192757,-0.
 00026979,-0.00003904,0.00151818,-0.01692716,0.00420203,-0.00203844,0.0
 0135903,-0.00113912,-0.00007593,-0.00034349,0.00077542,0.00143277,-0.0
 0041085,-0.00080028,-0.00040061,-0.00061175,-0.00035027,-0.00000641,-0
 .00046826,-0.00027020,0.00014082,0.00044333,0.00002891,0.00000999,0.00
 000066,0.00016319,-0.00011010,0.00009335,-0.00008007,-0.00013914,0.000
 26951,0.00015284,0.00156641,-0.00170819,-0.00040585,-0.00078836,0.0015
 7916,-0.00038259,0.00343190,0.00156126,0.00173051,0.00665699,-0.009885
 17,-0.01297543,0.00011997,-0.00022835,-0.00030074,-0.00031662,-0.00061
 431,0.00047513,0.00006534,0.00012389,0.00005527,0.00005764,-0.00007159
 ,-0.00004934,-0.00011074,0.00009615,0.00008023,0.00020470,0.00035281,-
 0.00026978,-0.00001578,-0.00055661,-0.00005569,-0.00002598,0.00012478,
 0.00010764,0.00002231,-0.00006501,0.00001415,-0.00000188,-0.00001193,-
 0.00005843,0.00015314,0.00004842,0.00004261,0.00005495,0.00011822,0.00
 004817,0.00000488,-0.00003733,-0.00004299,0.00008388,-0.00018805,-0.00
 002712,-0.00008355,-0.00034680,-0.00014592,0.00004297,0.00009122,0.000
 05465,-0.00001896,-0.00005617,-0.00003763,-0.00003444,-0.00009832,-0.0
 0001357,-0.00000782,-0.00001202,0.00000872,0.00003779,-0.00001676,0.00
 001515,0.00002661,-0.00009702,-0.00010125,-0.00001917,-0.00006742,-0.0
 0000913,-0.00013720,0.00006977,-0.00023572,0.00001805,0.00012959,-0.00
 015784,0.00009748,-0.00004848,0.00004249,0.00114310,-0.00091747,-0.000
 80395,-0.00005261,0.00026386,-0.00002746,-0.00005887,0.00014464,0.0000
 2536,-0.00007571,-0.00019705,-0.00006333,0.00004545,-0.00007739,-0.000
 04475,0.00004250,-0.00005863,0.00003500,-0.00003999,-0.00004712,-0.000
 05290,-0.00019821,0.00008985,0.00005783,0.00030471,-0.00003179,-0.0001
 4626,-0.00006373,-0.00001055,-0.00003689,0.00008602,-0.00014923,0.0000
 2271,-0.00000685,-0.00003214,-0.00004075,0.00003082,0.00009548,-0.0000
 5688,0.00001106,-0.00002698,-0.00006611,-0.00000150,-0.00003872,0.0000
 2387,0.00010927,0.00005398,-0.00006145,-0.00010418,0.00011349,-0.00001
 389,0.00012033,0.00006645,-0.00009371,-0.00005887,-0.00001432,-0.00001
 237,0.00000458,0.00001645,0.00000667,0.00001045,-0.00005296,0.00002656
 ,0.00002212,-0.00009133,-0.00001707,-0.00002435,-0.00006019,0.00006277
 ,0.00002245,-0.00004734,-0.00000547,-0.00003428,0.00000154,-0.00003356
 ,0.00003547,0.00002865,-0.00003132,-0.00016230,0.00015104,0.00007917,-
 0.00076019,0.00000429,-0.00017553,0.00030357,-0.00000974,0.00036854,-0
 .00008440,0.00000854,0.00002988,-0.00020549,0.00003852,-0.00007988,-0.
 00005054,-0.00008629,0.00002172,-0.00021266,-0.00024082,0.00002996,-0.
 00009475,0.00009355,-0.00008274,-0.00004103,0.00004751,0.00006277,-0.0
 0025635,0.00004005,0.00058673,-0.00026980,0.00021601,0.00047685,0.0000
 1172,0.00008999,0.00002998,-0.01161265,0.05682233,-0.00035262,-0.00016
 298,-0.00027235,0.00021725,0.00000887,0.00034509,0.00033071,0.00010809
 ,-0.00012257,-0.00013075,-0.00003665,-0.00016253,0.00012965,0.00009986
 ,0.00004405,0.00007459,-0.00000678,-0.00007892,-0.00004611,0.00002428,
 0.00005843,-0.00002592,0.00000368,0.00008855,-0.00049994,0.00014928,-0
 .00026274,0.00127980,0.00030834,-0.00060571,0.00096760,0.00033860,0.00
 089187,-0.00046107,0.00003551,-0.00093799,-0.00002762,0.00021335,0.000
 07322,0.00005495,-0.00015240,-0.00002184,-0.00005748,-0.00008050,-0.00
 006691,0.00033168,-0.00037279,0.00028239,-0.00090989,-0.00443024,0.002
 32420,-0.00010932,-0.00559709,-0.00058327,0.00408826,-0.00131870,-0.00
 676881,0.00170947,0.00223372,-0.00008896,0.00427190,0.00616207,-0.0104
 3146,-0.00000238,0.00095756,-0.00128778,0.00040641,0.00060726,0.000122
 82,-0.00018027,-0.00040197,0.00076133,-0.00009694,-0.00038905,0.000041
 75,-0.00256345,0.00872425,-0.00101539,-0.00332895,-0.00414731,0.000698
 12,-0.00002751,0.00014955,-0.00020677,0.00024184,-0.00019984,-0.000421
 29,0.00038306,0.00037559,-0.00024972,-0.00020093,-0.00020787,-0.000379
 65,-0.00004316,-0.00030083,0.00005558,0.00006703,0.00002837,0.00020221
 ,-0.00000575,-0.00004174,0.00020783,-0.00004554,0.00005703,0.00011512,
 0.00150780,-0.00022001,-0.00110190,-0.00129257,0.00096742,-0.00057218,
 -0.00467597,0.00006987,0.00030593,0.00261507,-0.00436921,-0.00342475,-
 0.00009203,-0.00008262,0.00029253,-0.00038721,0.00003254,0.00076544,0.
 00011363,0.00010304,-0.00009608,0.00005693,0.00000811,-0.00019611,0.00
 006093,0.00001518,-0.00013815,0.00006418,0.00008686,-0.00027525,-0.000
 04960,0.00003831,-0.00000459,0.00000966,0.00003291,0.00001576,-0.00005
 059,0.00000079,-0.00005172,0.00000305,-0.00001637,-0.00002780,0.000050
 96,0.00005216,0.00002083,-0.00000448,0.00009825,-0.00001060,0.00002941
 ,0.00000407,-0.00003799,-0.00000381,-0.00005178,0.00000205,-0.00010153
 ,-0.00023079,-0.00012951,0.00004131,0.00004598,-0.00004546,0.00007509,
 0.00000465,0.00001348,-0.00005000,-0.00005498,0.00003306,-0.00002598,-
 0.00000108,-0.00000975,-0.00003385,0.00000017,-0.00002152,-0.00003295,
 -0.00001907,0.00005564,0.00007497,-0.00002543,-0.00000194,0.00004966,-
 0.00003046,0.00002556,-0.00013460,0.00009363,-0.00017344,-0.00006498,0
 .00002283,-0.00003295,-0.00032068,0.00022654,-0.00019111,-0.00008286,0
 .00007167,-0.00006521,-0.00001751,-0.00001688,-0.00010005,0.00000437,0
 .00004008,0.00014599,0.00011333,-0.00000390,-0.00014463,0.00003088,0.0
 0003267,-0.00004657,-0.00003859,0.00002135,-0.00002296,0.00010732,-0.0
 0003446,-0.00004077,-0.00025088,0.00004636,-0.00000583,0.00002025,-0.0
 0003797,-0.00000807,-0.00003960,0.00009233,0.00000447,0.00000788,0.000
 01962,-0.00000809,-0.00002191,-0.00006206,0.00004052,-0.00000345,0.000
 01852,0.00000006,0.00000410,0.00003433,0.00000298,-0.00005704,-0.00004
 120,0.00003434,-0.00003260,-0.00000827,-0.00017694,-0.00001331,0.00000
 989,-0.00000544,-0.00002652,-0.00002200,-0.00004226,-0.00001120,-0.000
 02031,-0.00004196,-0.00002411,0.00000753,-0.00002759,0.00001391,-0.000
 01069,0.00001174,0.00001608,0.00002374,-0.00002798,-0.00002612,-0.0000
 1245,-0.00000568,0.00001194,-0.00001427,-0.00001243,0.00001314,-0.0000
 0056,-0.00002693,-0.00004969,-0.00007903,0.00004638,-0.00010380,0.0000
 2351,-0.00005475,0.00001581,0.00005961,-0.00018948,0.00005217,-0.00005
 141,-0.00003100,-0.00009780,0.00005741,-0.00002072,-0.00002733,-0.0000
 2278,0.00007911,-0.00006919,-0.00005694,0.00008969,-0.00006330,0.00008
 201,-0.00002230,0.00002305,-0.00007173,-0.00003656,-0.00002182,-0.0000
 9026,-0.00002984,-0.00004626,0.00009294,0.00008453,0.00003824,-0.00004
 683,0.00005055,-0.00221796,0.00043042,0.02326829\\-0.00000034,0.000000
 18,-0.00000088,0.00000015,-0.00000014,-0.00000153,-0.00000030,0.000000
 06,-0.00000170,-0.00000060,0.00000063,-0.00000285,-0.00000097,0.000001
 27,-0.00000042,-0.00000020,0.00000030,-0.00000225,-0.00000006,-0.00000
 012,-0.00000164,0.00000035,-0.00000040,-0.00000312,0.00000027,-0.00000
 050,-0.00000239,-0.00000059,0.00000002,0.00000158,0.00000038,0.0000005
 6,0.00000038,0.00000062,-0.00000106,0.00000032,-0.00000028,0.00000056,
 0.00000201,-0.00000066,0.00000078,0.00000154,-0.00000066,0.00000088,0.
 00000306,0.00000045,-0.00000040,-0.00000251,0.00000030,0.00000046,0.00
 000169,0.00000057,-0.00000063,-0.00000121,0.00000080,-0.00000102,0.000
 00089,-0.00000066,0.00000106,0.00000013,-0.00000017,0.00000059,0.00000
 078,0.00000006,-0.00000050,0.00000225,-0.00000012,0.00000077,-0.000001
 92,0.00000055,-0.00000035,0.00000259,-0.00000049,0.00000030,-0.0000010
 8,0.00000038,-0.00000101,0.00000158,-0.00000068,0.00000023,-0.00000001
 ,-0.00000059,0.00000091,0.00000270,-0.00000101,0.00000100,-0.00000210,
 0.00000053,-0.00000089,0.00000353,-0.00000073,0.00000096,-0.00000174,0
 .00000088,-0.00000088,0.00000437,-0.00000058,0.00000059,-0.00000282,0.
 00000117,-0.00000140,0.00000358,-0.00000096,0.00000100,-0.00000105,0.0
 0000026,0.,0.00000011,-0.00000014,0.00000040,0.00000168,0.00000067,-0.
 00000031,0.00000203,-0.00000012,-0.00000023,-0.00000213,0.00000039,-0.
 00000045,0.00000202,0.00000104,-0.00000107,-0.00000323,0.00000047,-0.0
 0000044,0.00000315,0.00000083,-0.00000115,-0.00000389,0.00000007,-0.00
 000002,0.00000178,0.00000091,-0.00000131,-0.00000417,0.00000018,-0.000
 00026,-0.00000138,-0.00000124,0.00000166,-0.00000186,-0.00000103,0.000
 00131,-0.00000028,-0.00000038,0.00000046,-0.00000095,-0.00000112,0.000
 00147,-0.00000137,-0.00000099,0.00000124,-0.00000318,-0.00000020,0.000
 00015,-0.00000279,-0.00000061,0.00000064,-0.00000342,-0.00000057,0.000
 00066,0.00000178,0.00000091,-0.00000100,0.00000158,0.00000032,-0.00000
 027,0.00000213,-0.00000004,0.00000008,0.00000094,-0.00000050,0.0000006
 6,0.00000209,-0.00000003,0.00000014,0.00000355,0.00000070,-0.00000081,
 0.00000339,0.00000073,-0.00000080,0.00000351,-0.00000050,0.00000075,0.
 00000327,-0.00000083,0.00000103,0.00000225,-0.00000059,0.00000083,0.00
 000319,0.00000112,-0.00000132,0.00000215,0.00000021,-0.00000007,0.0000
 0376,0.00000122,-0.00000139,0.00000438,0.00000106,-0.00000126,0.000003
 03,0.00000164,-0.00000196,0.00000338,0.00000126,-0.00000148,0.00000404
 ,0.00000046,-0.00000043,0.00000438,0.00000094,-0.00000100,0.00000508,-
 0.00000081,0.00000107,0.00000118,0.00000017,-0.00000016,0.00000217,-0.
 00000041,0.00000059,0.00000353,-0.00000115,0.00000153,0.00000296,-0.00
 000059,0.00000089,0.00000352,-0.00000114,0.00000151,0.00000129,-0.0000
 0042,0.00000053,0.00000068,-0.00000057,0.00000082,0.00000190,-0.000001
 14,0.00000143,-0.00000038,-0.00000118,0.00000146,-0.00000135,-0.000001
 25,0.00000155,-0.00000013,0.00000078,-0.00000113,-0.00000300,0.0000001
 8,-0.00000037,-0.00000369,0.00000025,-0.00000040,-0.00000363,-0.000000
 30,0.00000034,-0.00000091,-0.00000009,0.00000001,-0.00000212,0.0000004
 9,-0.00000068,-0.00000132,-0.00000066,0.00000074,-0.00000254,0.0000006
 1,-0.00000071,-0.00000129,-0.00000013,0.00000003,-0.00000321,0.0000013
 3,-0.00000172,-0.00000281,0.00000068,-0.00000090,-0.00000463,0.0000014
 2,-0.00000202,-0.00000449,0.00000101,-0.00000149,-0.00000376,0.0000006
 6,-0.00000110,-0.00000339,0.00000120,-0.00000171,-0.00000440,0.0000004
 1,-0.00000063,-0.00000447,-0.00000138,0.00000164,-0.00000181,-0.000001
 14,0.00000135,-0.00000312,-0.00000096,0.00000118,-0.00000265,0.0000008
 4,-0.00000195,0.00000010\\\@


 THE GREAT THING ABOUT BEING IMPERFECT IS THE JOY IT BRINGS OTHERS.
   -- SIGN OUTSIDE LAKE AGASSIZ JR. HIGH SCHOOL, FARGO, N.D.
 Job cpu time:       0 days 20 hours 40 minutes 31.1 seconds.
 File lengths (MBytes):  RWF=   7128 Int=      0 D2E=      0 Chk=     69 Scr=      1
 Normal termination of Gaussian 09 at Wed Oct 31 21:06:04 2018.
