 Entering Gaussian System, Link 0=g09
 Input=/net/work/kozuch/EnniatinDef2TZVP/nP_EB11Mg_out/Freq/nP_EB11Mg_out.com
 Output=/net/work/kozuch/EnniatinDef2TZVP/nP_EB11Mg_out/Freq/nP_EB11Mg_out.log
 Initial command:
 /afs/math/software/gaussian/g09.D01/opt/@sys/l1.exe "/scratch/kozuch_g09.wmfqn7I/Gau-27687.inp" -scrdir="/scratch/kozuch_g09.wmfqn7I/"
 Entering Link 1 = /afs/math/software/gaussian/g09.D01/opt/@sys/l1.exe PID=     27688.
  
 Copyright (c) 1988,1990,1992,1993,1995,1998,2003,2009,2013,
            Gaussian, Inc.  All Rights Reserved.
  
 This is part of the Gaussian(R) 09 program.  It is based on
 the Gaussian(R) 03 system (copyright 2003, Gaussian, Inc.),
 the Gaussian(R) 98 system (copyright 1998, Gaussian, Inc.),
 the Gaussian(R) 94 system (copyright 1995, Gaussian, Inc.),
 the Gaussian 92(TM) system (copyright 1992, Gaussian, Inc.),
 the Gaussian 90(TM) system (copyright 1990, Gaussian, Inc.),
 the Gaussian 88(TM) system (copyright 1988, Gaussian, Inc.),
 the Gaussian 86(TM) system (copyright 1986, Carnegie Mellon
 University), and the Gaussian 82(TM) system (copyright 1983,
 Carnegie Mellon University). Gaussian is a federally registered
 trademark of Gaussian, Inc.
  
 This software contains proprietary and confidential information,
 including trade secrets, belonging to Gaussian, Inc.
  
 This software is provided under written license and may be
 used, copied, transmitted, or stored only in accord with that
 written license.
  
 The following legend is applicable only to US Government
 contracts under FAR:
  
                    RESTRICTED RIGHTS LEGEND
  
 Use, reproduction and disclosure by the US Government is
 subject to restrictions as set forth in subparagraphs (a)
 and (c) of the Commercial Computer Software - Restricted
 Rights clause in FAR 52.227-19.
  
 Gaussian, Inc.
 340 Quinnipiac St., Bldg. 40, Wallingford CT 06492
  
  
 ---------------------------------------------------------------
 Warning -- This program may not be used in any manner that
 competes with the business of Gaussian, Inc. or will provide
 assistance to any competitor of Gaussian, Inc.  The licensee
 of this program is prohibited from giving any competitor of
 Gaussian, Inc. access to this program.  By using this program,
 the user acknowledges that Gaussian, Inc. is engaged in the
 business of creating and licensing software in the field of
 computational chemistry and represents and warrants to the
 licensee that it is not a competitor of Gaussian, Inc. and that
 it will not use this program in any manner prohibited above.
 ---------------------------------------------------------------
  

 Cite this work as:
 Gaussian 09, Revision D.01,
 M. J. Frisch, G. W. Trucks, H. B. Schlegel, G. E. Scuseria, 
 M. A. Robb, J. R. Cheeseman, G. Scalmani, V. Barone, B. Mennucci, 
 G. A. Petersson, H. Nakatsuji, M. Caricato, X. Li, H. P. Hratchian, 
 A. F. Izmaylov, J. Bloino, G. Zheng, J. L. Sonnenberg, M. Hada, 
 M. Ehara, K. Toyota, R. Fukuda, J. Hasegawa, M. Ishida, T. Nakajima, 
 Y. Honda, O. Kitao, H. Nakai, T. Vreven, J. A. Montgomery, Jr., 
 J. E. Peralta, F. Ogliaro, M. Bearpark, J. J. Heyd, E. Brothers, 
 K. N. Kudin, V. N. Staroverov, T. Keith, R. Kobayashi, J. Normand, 
 K. Raghavachari, A. Rendell, J. C. Burant, S. S. Iyengar, J. Tomasi, 
 M. Cossi, N. Rega, J. M. Millam, M. Klene, J. E. Knox, J. B. Cross, 
 V. Bakken, C. Adamo, J. Jaramillo, R. Gomperts, R. E. Stratmann, 
 O. Yazyev, A. J. Austin, R. Cammi, C. Pomelli, J. W. Ochterski, 
 R. L. Martin, K. Morokuma, V. G. Zakrzewski, G. A. Voth, 
 P. Salvador, J. J. Dannenberg, S. Dapprich, A. D. Daniels, 
 O. Farkas, J. B. Foresman, J. V. Ortiz, J. Cioslowski, 
 and D. J. Fox, Gaussian, Inc., Wallingford CT, 2013.
 
 ******************************************
 Gaussian 09:  ES64L-G09RevD.01 24-Apr-2013
                28-Oct-2018 
 ******************************************
 %chk=nP_EB11Mg_out.chk
 %mem=4GB
 ----------------------------------------------------------------------
 # bp86/gen freq int=ultrafine guess=checkpoint geom=checkpoint nosymm 
 scf=(xqc,maxconventionalcycles=128) scrf=(solvent=n-Pentadecane)
 ----------------------------------------------------------------------
 1/10=4,29=2,30=1,38=1/1,3;
 2/12=2,15=1,40=1/2;
 3/5=7,11=2,14=-4,16=1,25=1,30=1,70=2201,71=2,72=151,74=404,75=-5,116=-2,140=1/1,2,3;
 4/5=1/1;
 5/5=2,8=3,13=1,38=6,53=151,85=128,98=1/2,8;
 8/6=4,10=90,11=11/1;
 11/6=1,8=1,9=11,15=111,16=1,31=1/1,2,10;
 10/6=1,31=1/2;
 6/7=2,8=2,9=2,10=2,18=1,28=1/1;
 7/8=1,10=1,25=1,30=1/1,2,3,16;
 1/10=4,30=1/3;
 99//99;
 -------------
 nP_EB11Mg_out
 -------------
 Structure from the checkpoint file:  "nP_EB11Mg_out.chk"
 Charge =  2 Multiplicity = 1
 Redundant internal coordinates found in file.
 N,0,-2.6448450125,12.0239416201,13.0215628426
 C,0,-3.5987290018,13.1155349606,12.662278359
 C,0,-2.9561226484,14.471863527,12.9791664427
 O,0,-2.2786615044,14.7372137966,13.9656795452
 C,0,-2.7363117493,11.3690327348,14.3456723038
 C,0,-5.0129520207,12.9306251105,13.2958837133
 C,0,-5.7005405765,11.6763090719,12.721142254
 C,0,-5.8924967728,14.1740651542,13.0530575209
 O,0,-3.2149508924,15.3514768085,11.9742855657
 C,0,-0.872945722,10.4894019122,12.1478768889
 C,0,-1.5982621197,11.8343870634,12.1995028471
 O,0,-1.3035832401,12.7207298927,11.3160563383
 C,0,-1.3318922413,9.6677143067,10.906006953
 C,0,-2.8574439726,9.4554304277,10.8895377535
 C,0,-0.5910788146,8.3172978694,10.8692860474
 C,0,-2.7009271627,16.6991912011,12.1602219377
 O,0,0.5552391576,10.711185009,11.9803436914
 O,0,-0.5613496191,15.9548825737,11.3101744296
 O,0,1.9032790816,13.6553322075,11.3010694999
 O,0,1.7430443602,15.8563677967,13.9966209856
 O,0,0.6159282493,11.8531994833,13.9599477623
 N,0,3.1636277132,12.8530988422,13.0228236788
 N,0,-0.4758610691,17.4699895113,13.0110846175
 C,0,2.6859967617,11.4788839972,12.6787899375
 C,0,0.9447604696,17.7487541117,12.6407480565
 C,0,1.186076849,11.3788658764,12.9838154475
 C,0,1.8046559678,16.5229447412,12.9703331107
 C,0,3.7806660403,13.1113150731,14.3434912336
 C,0,-0.9817192612,17.8852248217,14.3384937629
 C,0,3.5316329368,10.3462857974,13.3410940346
 C,0,1.4947003654,19.0667248553,13.2711073441
 C,0,4.9628569632,10.3406793147,12.768928759
 C,0,0.7588875549,20.2905398206,12.6911433003
 C,0,2.8701406481,8.9685507006,13.1336762776
 C,0,3.0128260237,19.1998144153,13.0343388611
 O,0,2.6579756131,16.2615127697,11.9414022836
 C,0,3.5914891301,15.1651155774,12.1537790804
 C,0,2.8099016985,13.8488109994,12.192071725
 C,0,-1.1716073362,16.6566619104,12.197077973
 C,0,4.5829140773,15.1928979529,10.9534443634
 C,0,-3.2055820122,17.5267830658,10.9412835032
 C,0,5.6034502839,14.0421017886,11.033090323
 C,0,-2.6342953473,18.9565813496,10.9404431708
 C,0,5.3021431064,16.5549369429,10.9021812243
 C,0,-4.7459808448,17.555595641,10.9346646111
 H,0,4.8499586322,12.8507805963,14.3602546741
 H,0,3.6311727671,14.164372126,14.6110024763
 H,0,3.2395455838,12.510887654,15.0892800536
 H,0,-1.755003442,10.9596639955,14.6144735631
 H,0,-2.9744912829,12.1462274153,15.0868242818
 H,0,-3.5067560824,10.5831976077,14.368003264
 H,0,-0.1929857694,17.6740643642,15.0760894461
 H,0,-1.2441868048,18.9534963772,14.3661687047
 H,0,-1.8464635605,17.2668818052,14.6068969114
 H,0,4.1399452295,15.3430131495,13.0918479548
 H,0,3.9753619876,15.0711374674,10.035897179
 H,0,0.9613423896,17.866658685,11.5441177877
 H,0,1.3351467191,19.0244529674,14.3638967188
 H,0,-2.8492616278,16.9996457752,10.0352633788
 H,0,-4.8969406005,12.8189902146,14.3892957351
 H,0,-1.045348948,10.2607509947,10.0158383006
 H,0,-1.0355065374,9.9013082289,13.0644997696
 H,0,-3.7156480819,13.0719552985,11.5660852243
 H,0,-3.121748096,17.1117905933,13.0903665128
 H,0,-5.1362592063,18.0839157475,11.8242755755
 H,0,-5.1004071276,18.0979472626,10.0417200887
 H,0,-5.1788587046,16.5430483154,10.9125632462
 H,0,-1.536553921,18.9814164479,10.831424264
 H,0,-3.0598241579,19.5174633879,10.091651499
 H,0,-2.9062944577,19.5012937653,11.8627929109
 H,0,3.5896062192,18.3935840085,13.5196574465
 H,0,3.2572547435,19.2051142336,11.9573547585
 H,0,3.3616675848,20.1552065515,13.4607208329
 H,0,1.1225456936,21.210686604,13.1789108051
 H,0,0.9549531448,20.3861293185,11.6074723802
 H,0,-0.334004452,20.248466726,12.8339120068
 H,0,5.9853523981,16.5767916059,10.036105922
 H,0,4.5945512677,17.3923885422,10.7997641404
 H,0,5.9085988941,16.7191125702,11.8120094178
 H,0,6.2029037626,14.0993395101,11.9600142115
 H,0,5.1342937527,13.0447838756,10.9821718895
 H,0,6.3041357174,14.1176744058,10.1849840549
 H,0,3.5710361899,10.5284040125,14.4302428899
 H,0,2.7917815245,11.3790034191,11.5852663283
 H,0,4.9521011174,10.0856971159,11.6932035912
 H,0,5.4778929383,11.3096412118,12.881430032
 H,0,5.5701008314,9.5792669929,13.2869255119
 H,0,3.5156798862,8.1897291256,13.5727802182
 H,0,1.8846020532,8.894905466,13.6249637875
 H,0,2.7446807633,8.7343809055,12.0618133203
 H,0,0.5027048575,8.4466762817,10.864797593
 H,0,-0.8660466766,7.6892993448,11.7363723201
 H,0,-0.8734503084,7.7676633713,9.9551926727
 H,0,-3.2015841955,8.9192494679,11.7928488884
 H,0,-3.4238313942,10.3995080238,10.8074744875
 H,0,-3.1278661251,8.835478434,10.0185425066
 H,0,-6.0083179197,14.3837339273,11.9749959051
 H,0,-6.8975008385,13.9903822169,13.4681299307
 H,0,-5.493116417,15.0786068689,13.5435448612
 H,0,-5.1146794176,10.7533392109,12.8680535149
 H,0,-6.6787764335,11.5307451793,13.209639069
 H,0,-5.8818568735,11.7924318267,11.636699012
 Mg,0,0.022731701,14.1119419989,11.0757918112
 Recover connectivity data from disk.

 GradGradGradGradGradGradGradGradGradGradGradGradGradGradGradGradGradGrad
 Berny optimization.
 Initialization pass.
                           ----------------------------
                           !    Initial Parameters    !
                           ! (Angstroms and Degrees)  !
 --------------------------                            --------------------------
 ! Name  Definition              Value          Derivative Info.                !
 --------------------------------------------------------------------------------
 ! R1    R(1,2)                  1.4935         calculate D2E/DX2 analytically  !
 ! R2    R(1,5)                  1.48           calculate D2E/DX2 analytically  !
 ! R3    R(1,11)                 1.3443         calculate D2E/DX2 analytically  !
 ! R4    R(2,3)                  1.5339         calculate D2E/DX2 analytically  !
 ! R5    R(2,6)                  1.5607         calculate D2E/DX2 analytically  !
 ! R6    R(2,63)                 1.1033         calculate D2E/DX2 analytically  !
 ! R7    R(3,4)                  1.2258         calculate D2E/DX2 analytically  !
 ! R8    R(3,9)                  1.3603         calculate D2E/DX2 analytically  !
 ! R9    R(5,49)                 1.0967         calculate D2E/DX2 analytically  !
 ! R10   R(5,50)                 1.1            calculate D2E/DX2 analytically  !
 ! R11   R(5,51)                 1.1007         calculate D2E/DX2 analytically  !
 ! R12   R(6,7)                  1.5416         calculate D2E/DX2 analytically  !
 ! R13   R(6,8)                  1.5423         calculate D2E/DX2 analytically  !
 ! R14   R(6,60)                 1.1052         calculate D2E/DX2 analytically  !
 ! R15   R(7,100)                1.103          calculate D2E/DX2 analytically  !
 ! R16   R(7,101)                1.1031         calculate D2E/DX2 analytically  !
 ! R17   R(7,102)                1.1056         calculate D2E/DX2 analytically  !
 ! R18   R(8,97)                 1.1044         calculate D2E/DX2 analytically  !
 ! R19   R(8,98)                 1.1028         calculate D2E/DX2 analytically  !
 ! R20   R(8,99)                 1.1038         calculate D2E/DX2 analytically  !
 ! R21   R(9,16)                 1.4543         calculate D2E/DX2 analytically  !
 ! R22   R(10,11)                1.529          calculate D2E/DX2 analytically  !
 ! R23   R(10,13)                1.5582         calculate D2E/DX2 analytically  !
 ! R24   R(10,17)                1.455          calculate D2E/DX2 analytically  !
 ! R25   R(10,62)                1.1011         calculate D2E/DX2 analytically  !
 ! R26   R(11,12)                1.2857         calculate D2E/DX2 analytically  !
 ! R27   R(12,103)               1.9371         calculate D2E/DX2 analytically  !
 ! R28   R(13,14)                1.5403         calculate D2E/DX2 analytically  !
 ! R29   R(13,15)                1.5407         calculate D2E/DX2 analytically  !
 ! R30   R(13,61)                1.1073         calculate D2E/DX2 analytically  !
 ! R31   R(14,94)                1.1054         calculate D2E/DX2 analytically  !
 ! R32   R(14,95)                1.104          calculate D2E/DX2 analytically  !
 ! R33   R(14,96)                1.1028         calculate D2E/DX2 analytically  !
 ! R34   R(15,91)                1.1014         calculate D2E/DX2 analytically  !
 ! R35   R(15,92)                1.1054         calculate D2E/DX2 analytically  !
 ! R36   R(15,93)                1.1034         calculate D2E/DX2 analytically  !
 ! R37   R(16,39)                1.5304         calculate D2E/DX2 analytically  !
 ! R38   R(16,41)                1.5574         calculate D2E/DX2 analytically  !
 ! R39   R(16,64)                1.1011         calculate D2E/DX2 analytically  !
 ! R40   R(17,26)                1.3604         calculate D2E/DX2 analytically  !
 ! R41   R(18,39)                1.2851         calculate D2E/DX2 analytically  !
 ! R42   R(18,103)               1.9474         calculate D2E/DX2 analytically  !
 ! R43   R(19,38)                1.2858         calculate D2E/DX2 analytically  !
 ! R44   R(19,103)               1.9483         calculate D2E/DX2 analytically  !
 ! R45   R(20,27)                1.2253         calculate D2E/DX2 analytically  !
 ! R46   R(21,26)                1.2259         calculate D2E/DX2 analytically  !
 ! R47   R(22,24)                1.495          calculate D2E/DX2 analytically  !
 ! R48   R(22,28)                1.4804         calculate D2E/DX2 analytically  !
 ! R49   R(22,38)                1.3441         calculate D2E/DX2 analytically  !
 ! R50   R(23,25)                1.4943         calculate D2E/DX2 analytically  !
 ! R51   R(23,29)                1.48           calculate D2E/DX2 analytically  !
 ! R52   R(23,39)                1.3447         calculate D2E/DX2 analytically  !
 ! R53   R(24,26)                1.5339         calculate D2E/DX2 analytically  !
 ! R54   R(24,30)                1.5609         calculate D2E/DX2 analytically  !
 ! R55   R(24,84)                1.1032         calculate D2E/DX2 analytically  !
 ! R56   R(25,27)                1.5332         calculate D2E/DX2 analytically  !
 ! R57   R(25,31)                1.561          calculate D2E/DX2 analytically  !
 ! R58   R(25,57)                1.1031         calculate D2E/DX2 analytically  !
 ! R59   R(27,36)                1.3621         calculate D2E/DX2 analytically  !
 ! R60   R(28,46)                1.1007         calculate D2E/DX2 analytically  !
 ! R61   R(28,47)                1.0967         calculate D2E/DX2 analytically  !
 ! R62   R(28,48)                1.0998         calculate D2E/DX2 analytically  !
 ! R63   R(29,52)                1.1003         calculate D2E/DX2 analytically  !
 ! R64   R(29,53)                1.1004         calculate D2E/DX2 analytically  !
 ! R65   R(29,54)                1.0964         calculate D2E/DX2 analytically  !
 ! R66   R(30,32)                1.5414         calculate D2E/DX2 analytically  !
 ! R67   R(30,34)                1.5423         calculate D2E/DX2 analytically  !
 ! R68   R(30,83)                1.105          calculate D2E/DX2 analytically  !
 ! R69   R(31,33)                1.5413         calculate D2E/DX2 analytically  !
 ! R70   R(31,35)                1.5422         calculate D2E/DX2 analytically  !
 ! R71   R(31,58)                1.1052         calculate D2E/DX2 analytically  !
 ! R72   R(32,85)                1.1056         calculate D2E/DX2 analytically  !
 ! R73   R(32,86)                1.1031         calculate D2E/DX2 analytically  !
 ! R74   R(32,87)                1.1031         calculate D2E/DX2 analytically  !
 ! R75   R(33,74)                1.1031         calculate D2E/DX2 analytically  !
 ! R76   R(33,75)                1.1054         calculate D2E/DX2 analytically  !
 ! R77   R(33,76)                1.103          calculate D2E/DX2 analytically  !
 ! R78   R(34,88)                1.1028         calculate D2E/DX2 analytically  !
 ! R79   R(34,89)                1.1037         calculate D2E/DX2 analytically  !
 ! R80   R(34,90)                1.1043         calculate D2E/DX2 analytically  !
 ! R81   R(35,71)                1.1037         calculate D2E/DX2 analytically  !
 ! R82   R(35,72)                1.1044         calculate D2E/DX2 analytically  !
 ! R83   R(35,73)                1.1028         calculate D2E/DX2 analytically  !
 ! R84   R(36,37)                1.4556         calculate D2E/DX2 analytically  !
 ! R85   R(37,38)                1.5313         calculate D2E/DX2 analytically  !
 ! R86   R(37,40)                1.5571         calculate D2E/DX2 analytically  !
 ! R87   R(37,55)                1.1011         calculate D2E/DX2 analytically  !
 ! R88   R(40,42)                1.5402         calculate D2E/DX2 analytically  !
 ! R89   R(40,44)                1.5411         calculate D2E/DX2 analytically  !
 ! R90   R(40,56)                1.1072         calculate D2E/DX2 analytically  !
 ! R91   R(41,43)                1.5397         calculate D2E/DX2 analytically  !
 ! R92   R(41,45)                1.5407         calculate D2E/DX2 analytically  !
 ! R93   R(41,59)                1.1071         calculate D2E/DX2 analytically  !
 ! R94   R(42,80)                1.1054         calculate D2E/DX2 analytically  !
 ! R95   R(42,81)                1.1033         calculate D2E/DX2 analytically  !
 ! R96   R(42,82)                1.1027         calculate D2E/DX2 analytically  !
 ! R97   R(43,68)                1.1034         calculate D2E/DX2 analytically  !
 ! R98   R(43,69)                1.1028         calculate D2E/DX2 analytically  !
 ! R99   R(43,70)                1.1052         calculate D2E/DX2 analytically  !
 ! R100  R(44,77)                1.1033         calculate D2E/DX2 analytically  !
 ! R101  R(44,78)                1.1011         calculate D2E/DX2 analytically  !
 ! R102  R(44,79)                1.1057         calculate D2E/DX2 analytically  !
 ! R103  R(45,65)                1.1058         calculate D2E/DX2 analytically  !
 ! R104  R(45,66)                1.1032         calculate D2E/DX2 analytically  !
 ! R105  R(45,67)                1.1014         calculate D2E/DX2 analytically  !
 ! A1    A(2,1,5)              119.9446         calculate D2E/DX2 analytically  !
 ! A2    A(2,1,11)             116.9494         calculate D2E/DX2 analytically  !
 ! A3    A(5,1,11)             122.1961         calculate D2E/DX2 analytically  !
 ! A4    A(1,2,3)              109.2084         calculate D2E/DX2 analytically  !
 ! A5    A(1,2,6)              113.2345         calculate D2E/DX2 analytically  !
 ! A6    A(1,2,63)             106.1311         calculate D2E/DX2 analytically  !
 ! A7    A(3,2,6)              113.6099         calculate D2E/DX2 analytically  !
 ! A8    A(3,2,63)             106.5338         calculate D2E/DX2 analytically  !
 ! A9    A(6,2,63)             107.6179         calculate D2E/DX2 analytically  !
 ! A10   A(2,3,4)              126.0996         calculate D2E/DX2 analytically  !
 ! A11   A(2,3,9)              109.8423         calculate D2E/DX2 analytically  !
 ! A12   A(4,3,9)              124.0341         calculate D2E/DX2 analytically  !
 ! A13   A(1,5,49)             109.2167         calculate D2E/DX2 analytically  !
 ! A14   A(1,5,50)             107.6692         calculate D2E/DX2 analytically  !
 ! A15   A(1,5,51)             112.1671         calculate D2E/DX2 analytically  !
 ! A16   A(49,5,50)            106.9969         calculate D2E/DX2 analytically  !
 ! A17   A(49,5,51)            110.7826         calculate D2E/DX2 analytically  !
 ! A18   A(50,5,51)            109.8268         calculate D2E/DX2 analytically  !
 ! A19   A(2,6,7)              110.4397         calculate D2E/DX2 analytically  !
 ! A20   A(2,6,8)              110.9361         calculate D2E/DX2 analytically  !
 ! A21   A(2,6,60)             108.5724         calculate D2E/DX2 analytically  !
 ! A22   A(7,6,8)              110.0556         calculate D2E/DX2 analytically  !
 ! A23   A(7,6,60)             109.4805         calculate D2E/DX2 analytically  !
 ! A24   A(8,6,60)             107.2812         calculate D2E/DX2 analytically  !
 ! A25   A(6,7,100)            113.2209         calculate D2E/DX2 analytically  !
 ! A26   A(6,7,101)            109.7442         calculate D2E/DX2 analytically  !
 ! A27   A(6,7,102)            110.6942         calculate D2E/DX2 analytically  !
 ! A28   A(100,7,101)          107.5552         calculate D2E/DX2 analytically  !
 ! A29   A(100,7,102)          107.7959         calculate D2E/DX2 analytically  !
 ! A30   A(101,7,102)          107.6256         calculate D2E/DX2 analytically  !
 ! A31   A(6,8,97)             111.5043         calculate D2E/DX2 analytically  !
 ! A32   A(6,8,98)             109.037          calculate D2E/DX2 analytically  !
 ! A33   A(6,8,99)             112.6062         calculate D2E/DX2 analytically  !
 ! A34   A(97,8,98)            107.6668         calculate D2E/DX2 analytically  !
 ! A35   A(97,8,99)            108.4308         calculate D2E/DX2 analytically  !
 ! A36   A(98,8,99)            107.3979         calculate D2E/DX2 analytically  !
 ! A37   A(3,9,16)             115.9455         calculate D2E/DX2 analytically  !
 ! A38   A(11,10,13)           110.5522         calculate D2E/DX2 analytically  !
 ! A39   A(11,10,17)           109.5997         calculate D2E/DX2 analytically  !
 ! A40   A(11,10,62)           111.819          calculate D2E/DX2 analytically  !
 ! A41   A(13,10,17)           106.1242         calculate D2E/DX2 analytically  !
 ! A42   A(13,10,62)           109.7747         calculate D2E/DX2 analytically  !
 ! A43   A(17,10,62)           108.7945         calculate D2E/DX2 analytically  !
 ! A44   A(1,11,10)            120.9322         calculate D2E/DX2 analytically  !
 ! A45   A(1,11,12)            120.0961         calculate D2E/DX2 analytically  !
 ! A46   A(10,11,12)           118.328          calculate D2E/DX2 analytically  !
 ! A47   A(11,12,103)          137.5017         calculate D2E/DX2 analytically  !
 ! A48   A(10,13,14)           111.8946         calculate D2E/DX2 analytically  !
 ! A49   A(10,13,15)           109.8508         calculate D2E/DX2 analytically  !
 ! A50   A(10,13,61)           106.3827         calculate D2E/DX2 analytically  !
 ! A51   A(14,13,15)           110.8033         calculate D2E/DX2 analytically  !
 ! A52   A(14,13,61)           108.7534         calculate D2E/DX2 analytically  !
 ! A53   A(15,13,61)           109.0155         calculate D2E/DX2 analytically  !
 ! A54   A(13,14,94)           111.4969         calculate D2E/DX2 analytically  !
 ! A55   A(13,14,95)           113.0198         calculate D2E/DX2 analytically  !
 ! A56   A(13,14,96)           109.1953         calculate D2E/DX2 analytically  !
 ! A57   A(94,14,95)           108.4102         calculate D2E/DX2 analytically  !
 ! A58   A(94,14,96)           107.2415         calculate D2E/DX2 analytically  !
 ! A59   A(95,14,96)           107.2311         calculate D2E/DX2 analytically  !
 ! A60   A(13,15,91)           112.0017         calculate D2E/DX2 analytically  !
 ! A61   A(13,15,92)           111.0795         calculate D2E/DX2 analytically  !
 ! A62   A(13,15,93)           109.47           calculate D2E/DX2 analytically  !
 ! A63   A(91,15,92)           108.4796         calculate D2E/DX2 analytically  !
 ! A64   A(91,15,93)           108.0162         calculate D2E/DX2 analytically  !
 ! A65   A(92,15,93)           107.6499         calculate D2E/DX2 analytically  !
 ! A66   A(9,16,39)            109.3007         calculate D2E/DX2 analytically  !
 ! A67   A(9,16,41)            106.1317         calculate D2E/DX2 analytically  !
 ! A68   A(9,16,64)            108.6721         calculate D2E/DX2 analytically  !
 ! A69   A(39,16,41)           110.9432         calculate D2E/DX2 analytically  !
 ! A70   A(39,16,64)           111.8379         calculate D2E/DX2 analytically  !
 ! A71   A(41,16,64)           109.7668         calculate D2E/DX2 analytically  !
 ! A72   A(10,17,26)           116.4266         calculate D2E/DX2 analytically  !
 ! A73   A(39,18,103)          137.925          calculate D2E/DX2 analytically  !
 ! A74   A(38,19,103)          136.5071         calculate D2E/DX2 analytically  !
 ! A75   A(24,22,28)           119.9204         calculate D2E/DX2 analytically  !
 ! A76   A(24,22,38)           117.0413         calculate D2E/DX2 analytically  !
 ! A77   A(28,22,38)           122.1303         calculate D2E/DX2 analytically  !
 ! A78   A(25,23,29)           119.662          calculate D2E/DX2 analytically  !
 ! A79   A(25,23,39)           117.0453         calculate D2E/DX2 analytically  !
 ! A80   A(29,23,39)           122.3981         calculate D2E/DX2 analytically  !
 ! A81   A(22,24,26)           109.062          calculate D2E/DX2 analytically  !
 ! A82   A(22,24,30)           113.344          calculate D2E/DX2 analytically  !
 ! A83   A(22,24,84)           106.3024         calculate D2E/DX2 analytically  !
 ! A84   A(26,24,30)           113.4573         calculate D2E/DX2 analytically  !
 ! A85   A(26,24,84)           106.558          calculate D2E/DX2 analytically  !
 ! A86   A(30,24,84)           107.6348         calculate D2E/DX2 analytically  !
 ! A87   A(23,25,27)           109.3154         calculate D2E/DX2 analytically  !
 ! A88   A(23,25,31)           113.1002         calculate D2E/DX2 analytically  !
 ! A89   A(23,25,57)           106.2966         calculate D2E/DX2 analytically  !
 ! A90   A(27,25,31)           112.9941         calculate D2E/DX2 analytically  !
 ! A91   A(27,25,57)           106.9022         calculate D2E/DX2 analytically  !
 ! A92   A(31,25,57)           107.8129         calculate D2E/DX2 analytically  !
 ! A93   A(17,26,21)           124.164          calculate D2E/DX2 analytically  !
 ! A94   A(17,26,24)           109.8016         calculate D2E/DX2 analytically  !
 ! A95   A(21,26,24)           126.0072         calculate D2E/DX2 analytically  !
 ! A96   A(20,27,25)           125.9298         calculate D2E/DX2 analytically  !
 ! A97   A(20,27,36)           124.0426         calculate D2E/DX2 analytically  !
 ! A98   A(25,27,36)           110.0256         calculate D2E/DX2 analytically  !
 ! A99   A(22,28,46)           112.1611         calculate D2E/DX2 analytically  !
 ! A100  A(22,28,47)           109.1632         calculate D2E/DX2 analytically  !
 ! A101  A(22,28,48)           107.7371         calculate D2E/DX2 analytically  !
 ! A102  A(46,28,47)           110.8531         calculate D2E/DX2 analytically  !
 ! A103  A(46,28,48)           109.7813         calculate D2E/DX2 analytically  !
 ! A104  A(47,28,48)           106.9618         calculate D2E/DX2 analytically  !
 ! A105  A(23,29,52)           107.6008         calculate D2E/DX2 analytically  !
 ! A106  A(23,29,53)           112.1148         calculate D2E/DX2 analytically  !
 ! A107  A(23,29,54)           109.3238         calculate D2E/DX2 analytically  !
 ! A108  A(52,29,53)           109.9025         calculate D2E/DX2 analytically  !
 ! A109  A(52,29,54)           107.0387         calculate D2E/DX2 analytically  !
 ! A110  A(53,29,54)           110.6844         calculate D2E/DX2 analytically  !
 ! A111  A(24,30,32)           110.3757         calculate D2E/DX2 analytically  !
 ! A112  A(24,30,34)           111.0231         calculate D2E/DX2 analytically  !
 ! A113  A(24,30,83)           108.5391         calculate D2E/DX2 analytically  !
 ! A114  A(32,30,34)           110.1865         calculate D2E/DX2 analytically  !
 ! A115  A(32,30,83)           109.474          calculate D2E/DX2 analytically  !
 ! A116  A(34,30,83)           107.1624         calculate D2E/DX2 analytically  !
 ! A117  A(25,31,33)           110.5032         calculate D2E/DX2 analytically  !
 ! A118  A(25,31,35)           110.956          calculate D2E/DX2 analytically  !
 ! A119  A(25,31,58)           108.4288         calculate D2E/DX2 analytically  !
 ! A120  A(33,31,35)           110.0997         calculate D2E/DX2 analytically  !
 ! A121  A(33,31,58)           109.4825         calculate D2E/DX2 analytically  !
 ! A122  A(35,31,58)           107.2903         calculate D2E/DX2 analytically  !
 ! A123  A(30,32,85)           110.6701         calculate D2E/DX2 analytically  !
 ! A124  A(30,32,86)           113.1093         calculate D2E/DX2 analytically  !
 ! A125  A(30,32,87)           109.8374         calculate D2E/DX2 analytically  !
 ! A126  A(85,32,86)           107.8402         calculate D2E/DX2 analytically  !
 ! A127  A(85,32,87)           107.6418         calculate D2E/DX2 analytically  !
 ! A128  A(86,32,87)           107.542          calculate D2E/DX2 analytically  !
 ! A129  A(31,33,74)           109.7894         calculate D2E/DX2 analytically  !
 ! A130  A(31,33,75)           110.6634         calculate D2E/DX2 analytically  !
 ! A131  A(31,33,76)           113.2065         calculate D2E/DX2 analytically  !
 ! A132  A(74,33,75)           107.6306         calculate D2E/DX2 analytically  !
 ! A133  A(74,33,76)           107.5319         calculate D2E/DX2 analytically  !
 ! A134  A(75,33,76)           107.8147         calculate D2E/DX2 analytically  !
 ! A135  A(30,34,88)           109.042          calculate D2E/DX2 analytically  !
 ! A136  A(30,34,89)           112.5031         calculate D2E/DX2 analytically  !
 ! A137  A(30,34,90)           111.6347         calculate D2E/DX2 analytically  !
 ! A138  A(88,34,89)           107.3587         calculate D2E/DX2 analytically  !
 ! A139  A(88,34,90)           107.6519         calculate D2E/DX2 analytically  !
 ! A140  A(89,34,90)           108.4495         calculate D2E/DX2 analytically  !
 ! A141  A(31,35,71)           112.5733         calculate D2E/DX2 analytically  !
 ! A142  A(31,35,72)           111.592          calculate D2E/DX2 analytically  !
 ! A143  A(31,35,73)           109.0729         calculate D2E/DX2 analytically  !
 ! A144  A(71,35,72)           108.4601         calculate D2E/DX2 analytically  !
 ! A145  A(71,35,73)           107.3076         calculate D2E/DX2 analytically  !
 ! A146  A(72,35,73)           107.6296         calculate D2E/DX2 analytically  !
 ! A147  A(27,36,37)           115.8588         calculate D2E/DX2 analytically  !
 ! A148  A(36,37,38)           108.892          calculate D2E/DX2 analytically  !
 ! A149  A(36,37,40)           106.4059         calculate D2E/DX2 analytically  !
 ! A150  A(36,37,55)           108.7875         calculate D2E/DX2 analytically  !
 ! A151  A(38,37,40)           111.0752         calculate D2E/DX2 analytically  !
 ! A152  A(38,37,55)           111.8266         calculate D2E/DX2 analytically  !
 ! A153  A(40,37,55)           109.6769         calculate D2E/DX2 analytically  !
 ! A154  A(19,38,22)           120.1571         calculate D2E/DX2 analytically  !
 ! A155  A(19,38,37)           118.1575         calculate D2E/DX2 analytically  !
 ! A156  A(22,38,37)           121.1912         calculate D2E/DX2 analytically  !
 ! A157  A(16,39,18)           118.2359         calculate D2E/DX2 analytically  !
 ! A158  A(16,39,23)           120.9858         calculate D2E/DX2 analytically  !
 ! A159  A(18,39,23)           120.1573         calculate D2E/DX2 analytically  !
 ! A160  A(37,40,42)           111.6354         calculate D2E/DX2 analytically  !
 ! A161  A(37,40,44)           109.7894         calculate D2E/DX2 analytically  !
 ! A162  A(37,40,56)           106.7083         calculate D2E/DX2 analytically  !
 ! A163  A(42,40,44)           110.6613         calculate D2E/DX2 analytically  !
 ! A164  A(42,40,56)           108.9222         calculate D2E/DX2 analytically  !
 ! A165  A(44,40,56)           109.0092         calculate D2E/DX2 analytically  !
 ! A166  A(16,41,43)           111.9419         calculate D2E/DX2 analytically  !
 ! A167  A(16,41,45)           109.7115         calculate D2E/DX2 analytically  !
 ! A168  A(16,41,59)           106.4519         calculate D2E/DX2 analytically  !
 ! A169  A(43,41,45)           110.7076         calculate D2E/DX2 analytically  !
 ! A170  A(43,41,59)           108.8011         calculate D2E/DX2 analytically  !
 ! A171  A(45,41,59)           109.0974         calculate D2E/DX2 analytically  !
 ! A172  A(40,42,80)           111.3471         calculate D2E/DX2 analytically  !
 ! A173  A(40,42,81)           113.0322         calculate D2E/DX2 analytically  !
 ! A174  A(40,42,82)           109.2722         calculate D2E/DX2 analytically  !
 ! A175  A(80,42,81)           108.4278         calculate D2E/DX2 analytically  !
 ! A176  A(80,42,82)           107.2661         calculate D2E/DX2 analytically  !
 ! A177  A(81,42,82)           107.2564         calculate D2E/DX2 analytically  !
 ! A178  A(41,43,68)           112.9596         calculate D2E/DX2 analytically  !
 ! A179  A(41,43,69)           109.2416         calculate D2E/DX2 analytically  !
 ! A180  A(41,43,70)           111.4641         calculate D2E/DX2 analytically  !
 ! A181  A(68,43,69)           107.241          calculate D2E/DX2 analytically  !
 ! A182  A(68,43,70)           108.4338         calculate D2E/DX2 analytically  !
 ! A183  A(69,43,70)           107.2601         calculate D2E/DX2 analytically  !
 ! A184  A(40,44,77)           109.4268         calculate D2E/DX2 analytically  !
 ! A185  A(40,44,78)           112.0462         calculate D2E/DX2 analytically  !
 ! A186  A(40,44,79)           111.09           calculate D2E/DX2 analytically  !
 ! A187  A(77,44,78)           108.0496         calculate D2E/DX2 analytically  !
 ! A188  A(77,44,79)           107.6584         calculate D2E/DX2 analytically  !
 ! A189  A(78,44,79)           108.4254         calculate D2E/DX2 analytically  !
 ! A190  A(41,45,65)           110.9985         calculate D2E/DX2 analytically  !
 ! A191  A(41,45,66)           109.5041         calculate D2E/DX2 analytically  !
 ! A192  A(41,45,67)           112.0762         calculate D2E/DX2 analytically  !
 ! A193  A(65,45,66)           107.631          calculate D2E/DX2 analytically  !
 ! A194  A(65,45,67)           108.4602         calculate D2E/DX2 analytically  !
 ! A195  A(66,45,67)           108.0251         calculate D2E/DX2 analytically  !
 ! A196  A(12,103,18)          117.3469         calculate D2E/DX2 analytically  !
 ! A197  A(12,103,19)          118.5702         calculate D2E/DX2 analytically  !
 ! A198  A(18,103,19)          119.8265         calculate D2E/DX2 analytically  !
 ! D1    D(5,1,2,3)             94.7739         calculate D2E/DX2 analytically  !
 ! D2    D(5,1,2,6)            -32.897          calculate D2E/DX2 analytically  !
 ! D3    D(5,1,2,63)          -150.7399         calculate D2E/DX2 analytically  !
 ! D4    D(11,1,2,3)           -74.5501         calculate D2E/DX2 analytically  !
 ! D5    D(11,1,2,6)           157.779          calculate D2E/DX2 analytically  !
 ! D6    D(11,1,2,63)           39.9361         calculate D2E/DX2 analytically  !
 ! D7    D(2,1,5,49)          -154.5714         calculate D2E/DX2 analytically  !
 ! D8    D(2,1,5,50)           -38.7269         calculate D2E/DX2 analytically  !
 ! D9    D(2,1,5,51)            82.2148         calculate D2E/DX2 analytically  !
 ! D10   D(11,1,5,49)           14.1755         calculate D2E/DX2 analytically  !
 ! D11   D(11,1,5,50)          130.02           calculate D2E/DX2 analytically  !
 ! D12   D(11,1,5,51)         -109.0383         calculate D2E/DX2 analytically  !
 ! D13   D(2,1,11,10)         -157.1936         calculate D2E/DX2 analytically  !
 ! D14   D(2,1,11,12)           13.4569         calculate D2E/DX2 analytically  !
 ! D15   D(5,1,11,10)           33.7413         calculate D2E/DX2 analytically  !
 ! D16   D(5,1,11,12)         -155.6082         calculate D2E/DX2 analytically  !
 ! D17   D(1,2,3,4)            -40.2659         calculate D2E/DX2 analytically  !
 ! D18   D(1,2,3,9)            138.0052         calculate D2E/DX2 analytically  !
 ! D19   D(6,2,3,4)             87.1936         calculate D2E/DX2 analytically  !
 ! D20   D(6,2,3,9)            -94.5354         calculate D2E/DX2 analytically  !
 ! D21   D(63,2,3,4)          -154.4914         calculate D2E/DX2 analytically  !
 ! D22   D(63,2,3,9)            23.7797         calculate D2E/DX2 analytically  !
 ! D23   D(1,2,6,7)            -65.439          calculate D2E/DX2 analytically  !
 ! D24   D(1,2,6,8)            172.256          calculate D2E/DX2 analytically  !
 ! D25   D(1,2,6,60)            54.6052         calculate D2E/DX2 analytically  !
 ! D26   D(3,2,6,7)            169.2228         calculate D2E/DX2 analytically  !
 ! D27   D(3,2,6,8)             46.9178         calculate D2E/DX2 analytically  !
 ! D28   D(3,2,6,60)           -70.733          calculate D2E/DX2 analytically  !
 ! D29   D(63,2,6,7)            51.5341         calculate D2E/DX2 analytically  !
 ! D30   D(63,2,6,8)           -70.771          calculate D2E/DX2 analytically  !
 ! D31   D(63,2,6,60)          171.5782         calculate D2E/DX2 analytically  !
 ! D32   D(2,3,9,16)           178.0745         calculate D2E/DX2 analytically  !
 ! D33   D(4,3,9,16)            -3.6112         calculate D2E/DX2 analytically  !
 ! D34   D(2,6,7,100)           57.256          calculate D2E/DX2 analytically  !
 ! D35   D(2,6,7,101)          177.4348         calculate D2E/DX2 analytically  !
 ! D36   D(2,6,7,102)          -63.9136         calculate D2E/DX2 analytically  !
 ! D37   D(8,6,7,100)         -179.9236         calculate D2E/DX2 analytically  !
 ! D38   D(8,6,7,101)          -59.7447         calculate D2E/DX2 analytically  !
 ! D39   D(8,6,7,102)           58.9068         calculate D2E/DX2 analytically  !
 ! D40   D(60,6,7,100)         -62.2408         calculate D2E/DX2 analytically  !
 ! D41   D(60,6,7,101)          57.9381         calculate D2E/DX2 analytically  !
 ! D42   D(60,6,7,102)         176.5897         calculate D2E/DX2 analytically  !
 ! D43   D(2,6,8,97)            58.4435         calculate D2E/DX2 analytically  !
 ! D44   D(2,6,8,98)           177.1947         calculate D2E/DX2 analytically  !
 ! D45   D(2,6,8,99)           -63.7074         calculate D2E/DX2 analytically  !
 ! D46   D(7,6,8,97)           -64.0847         calculate D2E/DX2 analytically  !
 ! D47   D(7,6,8,98)            54.6665         calculate D2E/DX2 analytically  !
 ! D48   D(7,6,8,99)           173.7644         calculate D2E/DX2 analytically  !
 ! D49   D(60,6,8,97)          176.8785         calculate D2E/DX2 analytically  !
 ! D50   D(60,6,8,98)          -64.3703         calculate D2E/DX2 analytically  !
 ! D51   D(60,6,8,99)           54.7276         calculate D2E/DX2 analytically  !
 ! D52   D(3,9,16,39)           64.1143         calculate D2E/DX2 analytically  !
 ! D53   D(3,9,16,41)         -176.1801         calculate D2E/DX2 analytically  !
 ! D54   D(3,9,16,64)          -58.1876         calculate D2E/DX2 analytically  !
 ! D55   D(13,10,11,1)         100.9069         calculate D2E/DX2 analytically  !
 ! D56   D(13,10,11,12)        -69.905          calculate D2E/DX2 analytically  !
 ! D57   D(17,10,11,1)        -142.4556         calculate D2E/DX2 analytically  !
 ! D58   D(17,10,11,12)         46.7325         calculate D2E/DX2 analytically  !
 ! D59   D(62,10,11,1)         -21.7293         calculate D2E/DX2 analytically  !
 ! D60   D(62,10,11,12)        167.4588         calculate D2E/DX2 analytically  !
 ! D61   D(11,10,13,14)        -56.5304         calculate D2E/DX2 analytically  !
 ! D62   D(11,10,13,15)        179.9624         calculate D2E/DX2 analytically  !
 ! D63   D(11,10,13,61)         62.1094         calculate D2E/DX2 analytically  !
 ! D64   D(17,10,13,14)       -175.3011         calculate D2E/DX2 analytically  !
 ! D65   D(17,10,13,15)         61.1916         calculate D2E/DX2 analytically  !
 ! D66   D(17,10,13,61)        -56.6614         calculate D2E/DX2 analytically  !
 ! D67   D(62,10,13,14)         67.2912         calculate D2E/DX2 analytically  !
 ! D68   D(62,10,13,15)        -56.2161         calculate D2E/DX2 analytically  !
 ! D69   D(62,10,13,61)       -174.069          calculate D2E/DX2 analytically  !
 ! D70   D(11,10,17,26)         62.774          calculate D2E/DX2 analytically  !
 ! D71   D(13,10,17,26)       -177.8294         calculate D2E/DX2 analytically  !
 ! D72   D(62,10,17,26)        -59.7694         calculate D2E/DX2 analytically  !
 ! D73   D(1,11,12,103)        103.6497         calculate D2E/DX2 analytically  !
 ! D74   D(10,11,12,103)       -85.4591         calculate D2E/DX2 analytically  !
 ! D75   D(11,12,103,18)      -105.6894         calculate D2E/DX2 analytically  !
 ! D76   D(11,12,103,19)        51.1224         calculate D2E/DX2 analytically  !
 ! D77   D(10,13,14,94)        -59.3242         calculate D2E/DX2 analytically  !
 ! D78   D(10,13,14,95)         63.0968         calculate D2E/DX2 analytically  !
 ! D79   D(10,13,14,96)       -177.6465         calculate D2E/DX2 analytically  !
 ! D80   D(15,13,14,94)         63.6445         calculate D2E/DX2 analytically  !
 ! D81   D(15,13,14,95)       -173.9344         calculate D2E/DX2 analytically  !
 ! D82   D(15,13,14,96)        -54.6777         calculate D2E/DX2 analytically  !
 ! D83   D(61,13,14,94)       -176.5482         calculate D2E/DX2 analytically  !
 ! D84   D(61,13,14,95)        -54.1272         calculate D2E/DX2 analytically  !
 ! D85   D(61,13,14,96)         65.1295         calculate D2E/DX2 analytically  !
 ! D86   D(10,13,15,91)        -56.7307         calculate D2E/DX2 analytically  !
 ! D87   D(10,13,15,92)         64.7444         calculate D2E/DX2 analytically  !
 ! D88   D(10,13,15,93)       -176.5099         calculate D2E/DX2 analytically  !
 ! D89   D(14,13,15,91)        179.1255         calculate D2E/DX2 analytically  !
 ! D90   D(14,13,15,92)        -59.3994         calculate D2E/DX2 analytically  !
 ! D91   D(14,13,15,93)         59.3463         calculate D2E/DX2 analytically  !
 ! D92   D(61,13,15,91)         59.4752         calculate D2E/DX2 analytically  !
 ! D93   D(61,13,15,92)       -179.0496         calculate D2E/DX2 analytically  !
 ! D94   D(61,13,15,93)        -60.304          calculate D2E/DX2 analytically  !
 ! D95   D(9,16,39,18)          45.4986         calculate D2E/DX2 analytically  !
 ! D96   D(9,16,39,23)        -143.5227         calculate D2E/DX2 analytically  !
 ! D97   D(41,16,39,18)        -71.197          calculate D2E/DX2 analytically  !
 ! D98   D(41,16,39,23)         99.7817         calculate D2E/DX2 analytically  !
 ! D99   D(64,16,39,18)        165.882          calculate D2E/DX2 analytically  !
 ! D100  D(64,16,39,23)        -23.1393         calculate D2E/DX2 analytically  !
 ! D101  D(9,16,41,43)        -175.096          calculate D2E/DX2 analytically  !
 ! D102  D(9,16,41,45)          61.5869         calculate D2E/DX2 analytically  !
 ! D103  D(9,16,41,59)         -56.3291         calculate D2E/DX2 analytically  !
 ! D104  D(39,16,41,43)        -56.4686         calculate D2E/DX2 analytically  !
 ! D105  D(39,16,41,45)       -179.7858         calculate D2E/DX2 analytically  !
 ! D106  D(39,16,41,59)         62.2983         calculate D2E/DX2 analytically  !
 ! D107  D(64,16,41,43)         67.6406         calculate D2E/DX2 analytically  !
 ! D108  D(64,16,41,45)        -55.6766         calculate D2E/DX2 analytically  !
 ! D109  D(64,16,41,59)       -173.5925         calculate D2E/DX2 analytically  !
 ! D110  D(10,17,26,21)         -4.0293         calculate D2E/DX2 analytically  !
 ! D111  D(10,17,26,24)        177.771          calculate D2E/DX2 analytically  !
 ! D112  D(103,18,39,16)       -87.2769         calculate D2E/DX2 analytically  !
 ! D113  D(103,18,39,23)       101.667          calculate D2E/DX2 analytically  !
 ! D114  D(39,18,103,12)        52.8414         calculate D2E/DX2 analytically  !
 ! D115  D(39,18,103,19)      -103.6676         calculate D2E/DX2 analytically  !
 ! D116  D(103,19,38,22)       103.0767         calculate D2E/DX2 analytically  !
 ! D117  D(103,19,38,37)       -84.8913         calculate D2E/DX2 analytically  !
 ! D118  D(38,19,103,12)      -105.1488         calculate D2E/DX2 analytically  !
 ! D119  D(38,19,103,18)        51.076          calculate D2E/DX2 analytically  !
 ! D120  D(28,22,24,26)         95.5091         calculate D2E/DX2 analytically  !
 ! D121  D(28,22,24,30)        -31.9241         calculate D2E/DX2 analytically  !
 ! D122  D(28,22,24,84)       -149.9584         calculate D2E/DX2 analytically  !
 ! D123  D(38,22,24,26)        -73.8185         calculate D2E/DX2 analytically  !
 ! D124  D(38,22,24,30)        158.7484         calculate D2E/DX2 analytically  !
 ! D125  D(38,22,24,84)         40.714          calculate D2E/DX2 analytically  !
 ! D126  D(24,22,28,46)         83.4292         calculate D2E/DX2 analytically  !
 ! D127  D(24,22,28,47)       -153.3093         calculate D2E/DX2 analytically  !
 ! D128  D(24,22,28,48)        -37.4975         calculate D2E/DX2 analytically  !
 ! D129  D(38,22,28,46)       -107.8027         calculate D2E/DX2 analytically  !
 ! D130  D(38,22,28,47)         15.4587         calculate D2E/DX2 analytically  !
 ! D131  D(38,22,28,48)        131.2706         calculate D2E/DX2 analytically  !
 ! D132  D(24,22,38,19)         12.6428         calculate D2E/DX2 analytically  !
 ! D133  D(24,22,38,37)       -159.1435         calculate D2E/DX2 analytically  !
 ! D134  D(28,22,38,19)       -156.4312         calculate D2E/DX2 analytically  !
 ! D135  D(28,22,38,37)         31.7826         calculate D2E/DX2 analytically  !
 ! D136  D(29,23,25,27)         94.1625         calculate D2E/DX2 analytically  !
 ! D137  D(29,23,25,31)        -32.673          calculate D2E/DX2 analytically  !
 ! D138  D(29,23,25,57)       -150.7852         calculate D2E/DX2 analytically  !
 ! D139  D(39,23,25,27)        -75.2735         calculate D2E/DX2 analytically  !
 ! D140  D(39,23,25,31)        157.891          calculate D2E/DX2 analytically  !
 ! D141  D(39,23,25,57)         39.7789         calculate D2E/DX2 analytically  !
 ! D142  D(25,23,29,52)        -40.5701         calculate D2E/DX2 analytically  !
 ! D143  D(25,23,29,53)         80.3881         calculate D2E/DX2 analytically  !
 ! D144  D(25,23,29,54)       -156.4829         calculate D2E/DX2 analytically  !
 ! D145  D(39,23,29,52)        128.2794         calculate D2E/DX2 analytically  !
 ! D146  D(39,23,29,53)       -110.7624         calculate D2E/DX2 analytically  !
 ! D147  D(39,23,29,54)         12.3666         calculate D2E/DX2 analytically  !
 ! D148  D(25,23,39,16)       -157.3756         calculate D2E/DX2 analytically  !
 ! D149  D(25,23,39,18)         13.4309         calculate D2E/DX2 analytically  !
 ! D150  D(29,23,39,16)         33.5001         calculate D2E/DX2 analytically  !
 ! D151  D(29,23,39,18)       -155.6934         calculate D2E/DX2 analytically  !
 ! D152  D(22,24,26,17)        137.7643         calculate D2E/DX2 analytically  !
 ! D153  D(22,24,26,21)        -40.3942         calculate D2E/DX2 analytically  !
 ! D154  D(30,24,26,17)        -94.8667         calculate D2E/DX2 analytically  !
 ! D155  D(30,24,26,21)         86.9748         calculate D2E/DX2 analytically  !
 ! D156  D(84,24,26,17)         23.3977         calculate D2E/DX2 analytically  !
 ! D157  D(84,24,26,21)       -154.7608         calculate D2E/DX2 analytically  !
 ! D158  D(22,24,30,32)        -66.3071         calculate D2E/DX2 analytically  !
 ! D159  D(22,24,30,34)        171.2062         calculate D2E/DX2 analytically  !
 ! D160  D(22,24,30,83)         53.6698         calculate D2E/DX2 analytically  !
 ! D161  D(26,24,30,32)        168.5914         calculate D2E/DX2 analytically  !
 ! D162  D(26,24,30,34)         46.1047         calculate D2E/DX2 analytically  !
 ! D163  D(26,24,30,83)        -71.4318         calculate D2E/DX2 analytically  !
 ! D164  D(84,24,30,32)         50.9511         calculate D2E/DX2 analytically  !
 ! D165  D(84,24,30,34)        -71.5355         calculate D2E/DX2 analytically  !
 ! D166  D(84,24,30,83)        170.928          calculate D2E/DX2 analytically  !
 ! D167  D(23,25,27,20)        -43.8637         calculate D2E/DX2 analytically  !
 ! D168  D(23,25,27,36)        135.6223         calculate D2E/DX2 analytically  !
 ! D169  D(31,25,27,20)         83.032          calculate D2E/DX2 analytically  !
 ! D170  D(31,25,27,36)        -97.482          calculate D2E/DX2 analytically  !
 ! D171  D(57,25,27,20)       -158.5264         calculate D2E/DX2 analytically  !
 ! D172  D(57,25,27,36)         20.9596         calculate D2E/DX2 analytically  !
 ! D173  D(23,25,31,33)        -66.0382         calculate D2E/DX2 analytically  !
 ! D174  D(23,25,31,35)        171.5433         calculate D2E/DX2 analytically  !
 ! D175  D(23,25,31,58)         53.957          calculate D2E/DX2 analytically  !
 ! D176  D(27,25,31,33)        169.0969         calculate D2E/DX2 analytically  !
 ! D177  D(27,25,31,35)         46.6785         calculate D2E/DX2 analytically  !
 ! D178  D(27,25,31,58)        -70.9079         calculate D2E/DX2 analytically  !
 ! D179  D(57,25,31,33)         51.1867         calculate D2E/DX2 analytically  !
 ! D180  D(57,25,31,35)        -71.2317         calculate D2E/DX2 analytically  !
 ! D181  D(57,25,31,58)        171.1819         calculate D2E/DX2 analytically  !
 ! D182  D(20,27,36,37)         -3.9343         calculate D2E/DX2 analytically  !
 ! D183  D(25,27,36,37)        176.5681         calculate D2E/DX2 analytically  !
 ! D184  D(24,30,32,85)        -64.7839         calculate D2E/DX2 analytically  !
 ! D185  D(24,30,32,86)         56.3474         calculate D2E/DX2 analytically  !
 ! D186  D(24,30,32,87)        176.5009         calculate D2E/DX2 analytically  !
 ! D187  D(34,30,32,85)         58.1921         calculate D2E/DX2 analytically  !
 ! D188  D(34,30,32,86)        179.3234         calculate D2E/DX2 analytically  !
 ! D189  D(34,30,32,87)        -60.523          calculate D2E/DX2 analytically  !
 ! D190  D(83,30,32,85)        175.8039         calculate D2E/DX2 analytically  !
 ! D191  D(83,30,32,86)        -63.0648         calculate D2E/DX2 analytically  !
 ! D192  D(83,30,32,87)         57.0887         calculate D2E/DX2 analytically  !
 ! D193  D(24,30,34,88)        177.4375         calculate D2E/DX2 analytically  !
 ! D194  D(24,30,34,89)        -63.5747         calculate D2E/DX2 analytically  !
 ! D195  D(24,30,34,90)         58.6218         calculate D2E/DX2 analytically  !
 ! D196  D(32,30,34,88)         54.8413         calculate D2E/DX2 analytically  !
 ! D197  D(32,30,34,89)        173.8291         calculate D2E/DX2 analytically  !
 ! D198  D(32,30,34,90)        -63.9745         calculate D2E/DX2 analytically  !
 ! D199  D(83,30,34,88)        -64.1906         calculate D2E/DX2 analytically  !
 ! D200  D(83,30,34,89)         54.7972         calculate D2E/DX2 analytically  !
 ! D201  D(83,30,34,90)        176.9937         calculate D2E/DX2 analytically  !
 ! D202  D(25,31,33,74)        177.3173         calculate D2E/DX2 analytically  !
 ! D203  D(25,31,33,75)        -64.0157         calculate D2E/DX2 analytically  !
 ! D204  D(25,31,33,76)         57.1458         calculate D2E/DX2 analytically  !
 ! D205  D(35,31,33,74)        -59.7642         calculate D2E/DX2 analytically  !
 ! D206  D(35,31,33,75)         58.9028         calculate D2E/DX2 analytically  !
 ! D207  D(35,31,33,76)       -179.9357         calculate D2E/DX2 analytically  !
 ! D208  D(58,31,33,74)         57.9571         calculate D2E/DX2 analytically  !
 ! D209  D(58,31,33,75)        176.6241         calculate D2E/DX2 analytically  !
 ! D210  D(58,31,33,76)        -62.2144         calculate D2E/DX2 analytically  !
 ! D211  D(25,31,35,71)        -62.9348         calculate D2E/DX2 analytically  !
 ! D212  D(25,31,35,72)         59.2952         calculate D2E/DX2 analytically  !
 ! D213  D(25,31,35,73)        178.0769         calculate D2E/DX2 analytically  !
 ! D214  D(33,31,35,71)        174.4127         calculate D2E/DX2 analytically  !
 ! D215  D(33,31,35,72)        -63.3572         calculate D2E/DX2 analytically  !
 ! D216  D(33,31,35,73)         55.4245         calculate D2E/DX2 analytically  !
 ! D217  D(58,31,35,71)         55.3434         calculate D2E/DX2 analytically  !
 ! D218  D(58,31,35,72)        177.5735         calculate D2E/DX2 analytically  !
 ! D219  D(58,31,35,73)        -63.6448         calculate D2E/DX2 analytically  !
 ! D220  D(27,36,37,38)         68.294          calculate D2E/DX2 analytically  !
 ! D221  D(27,36,37,40)       -171.9071         calculate D2E/DX2 analytically  !
 ! D222  D(27,36,37,55)        -53.813          calculate D2E/DX2 analytically  !
 ! D223  D(36,37,38,19)         44.7145         calculate D2E/DX2 analytically  !
 ! D224  D(36,37,38,22)       -143.3398         calculate D2E/DX2 analytically  !
 ! D225  D(40,37,38,19)        -72.1449         calculate D2E/DX2 analytically  !
 ! D226  D(40,37,38,22)         99.8008         calculate D2E/DX2 analytically  !
 ! D227  D(55,37,38,19)        164.9626         calculate D2E/DX2 analytically  !
 ! D228  D(55,37,38,22)        -23.0917         calculate D2E/DX2 analytically  !
 ! D229  D(36,37,40,42)       -178.0463         calculate D2E/DX2 analytically  !
 ! D230  D(36,37,40,44)         58.8521         calculate D2E/DX2 analytically  !
 ! D231  D(36,37,40,56)        -59.1451         calculate D2E/DX2 analytically  !
 ! D232  D(38,37,40,42)        -59.6747         calculate D2E/DX2 analytically  !
 ! D233  D(38,37,40,44)        177.2237         calculate D2E/DX2 analytically  !
 ! D234  D(38,37,40,56)         59.2265         calculate D2E/DX2 analytically  !
 ! D235  D(55,37,40,42)         64.4481         calculate D2E/DX2 analytically  !
 ! D236  D(55,37,40,44)        -58.6535         calculate D2E/DX2 analytically  !
 ! D237  D(55,37,40,56)       -176.6507         calculate D2E/DX2 analytically  !
 ! D238  D(37,40,42,80)        -59.8819         calculate D2E/DX2 analytically  !
 ! D239  D(37,40,42,81)         62.4587         calculate D2E/DX2 analytically  !
 ! D240  D(37,40,42,82)       -178.1922         calculate D2E/DX2 analytically  !
 ! D241  D(44,40,42,80)         62.7223         calculate D2E/DX2 analytically  !
 ! D242  D(44,40,42,81)       -174.9372         calculate D2E/DX2 analytically  !
 ! D243  D(44,40,42,82)        -55.588          calculate D2E/DX2 analytically  !
 ! D244  D(56,40,42,80)       -177.4583         calculate D2E/DX2 analytically  !
 ! D245  D(56,40,42,81)        -55.1177         calculate D2E/DX2 analytically  !
 ! D246  D(56,40,42,82)         64.2314         calculate D2E/DX2 analytically  !
 ! D247  D(37,40,44,77)       -178.684          calculate D2E/DX2 analytically  !
 ! D248  D(37,40,44,78)        -58.8634         calculate D2E/DX2 analytically  !
 ! D249  D(37,40,44,79)         62.5806         calculate D2E/DX2 analytically  !
 ! D250  D(42,40,44,77)         57.6426         calculate D2E/DX2 analytically  !
 ! D251  D(42,40,44,78)        177.4632         calculate D2E/DX2 analytically  !
 ! D252  D(42,40,44,79)        -61.0928         calculate D2E/DX2 analytically  !
 ! D253  D(56,40,44,77)        -62.1246         calculate D2E/DX2 analytically  !
 ! D254  D(56,40,44,78)         57.696          calculate D2E/DX2 analytically  !
 ! D255  D(56,40,44,79)        179.1401         calculate D2E/DX2 analytically  !
 ! D256  D(16,41,43,68)         63.6681         calculate D2E/DX2 analytically  !
 ! D257  D(16,41,43,69)       -177.0694         calculate D2E/DX2 analytically  !
 ! D258  D(16,41,43,70)        -58.7148         calculate D2E/DX2 analytically  !
 ! D259  D(45,41,43,68)       -173.5786         calculate D2E/DX2 analytically  !
 ! D260  D(45,41,43,69)        -54.3162         calculate D2E/DX2 analytically  !
 ! D261  D(45,41,43,70)         64.0385         calculate D2E/DX2 analytically  !
 ! D262  D(59,41,43,68)        -53.6988         calculate D2E/DX2 analytically  !
 ! D263  D(59,41,43,69)         65.5636         calculate D2E/DX2 analytically  !
 ! D264  D(59,41,43,70)       -176.0817         calculate D2E/DX2 analytically  !
 ! D265  D(16,41,45,65)         64.2178         calculate D2E/DX2 analytically  !
 ! D266  D(16,41,45,66)       -177.088          calculate D2E/DX2 analytically  !
 ! D267  D(16,41,45,67)        -57.2271         calculate D2E/DX2 analytically  !
 ! D268  D(43,41,45,65)        -59.8225         calculate D2E/DX2 analytically  !
 ! D269  D(43,41,45,66)         58.8717         calculate D2E/DX2 analytically  !
 ! D270  D(43,41,45,67)        178.7326         calculate D2E/DX2 analytically  !
 ! D271  D(59,41,45,65)       -179.5247         calculate D2E/DX2 analytically  !
 ! D272  D(59,41,45,66)        -60.8305         calculate D2E/DX2 analytically  !
 ! D273  D(59,41,45,67)         59.0304         calculate D2E/DX2 analytically  !
 --------------------------------------------------------------------------------
 Trust Radius=3.00D-01 FncErr=1.00D-07 GrdErr=1.00D-07
 Number of steps in this run=      2 maximum allowed number of steps=      2.
 GradGradGradGradGradGradGradGradGradGradGradGradGradGradGradGradGradGrad

 Symmetry turned off by external request.
 Stoichiometry    C33H57MgN3O9(2+)
 Framework group  C1[X(C33H57MgN3O9)]
 Deg. of freedom   303
 Full point group                 C1      NOp   1
                          Input orientation:                          
 ---------------------------------------------------------------------
 Center     Atomic      Atomic             Coordinates (Angstroms)
 Number     Number       Type             X           Y           Z
 ---------------------------------------------------------------------
      1          7           0       -2.644845   12.023942   13.021563
      2          6           0       -3.598729   13.115535   12.662278
      3          6           0       -2.956123   14.471864   12.979166
      4          8           0       -2.278662   14.737214   13.965680
      5          6           0       -2.736312   11.369033   14.345672
      6          6           0       -5.012952   12.930625   13.295884
      7          6           0       -5.700541   11.676309   12.721142
      8          6           0       -5.892497   14.174065   13.053058
      9          8           0       -3.214951   15.351477   11.974286
     10          6           0       -0.872946   10.489402   12.147877
     11          6           0       -1.598262   11.834387   12.199503
     12          8           0       -1.303583   12.720730   11.316056
     13          6           0       -1.331892    9.667714   10.906007
     14          6           0       -2.857444    9.455430   10.889538
     15          6           0       -0.591079    8.317298   10.869286
     16          6           0       -2.700927   16.699191   12.160222
     17          8           0        0.555239   10.711185   11.980344
     18          8           0       -0.561350   15.954883   11.310174
     19          8           0        1.903279   13.655332   11.301069
     20          8           0        1.743044   15.856368   13.996621
     21          8           0        0.615928   11.853199   13.959948
     22          7           0        3.163628   12.853099   13.022824
     23          7           0       -0.475861   17.469990   13.011085
     24          6           0        2.685997   11.478884   12.678790
     25          6           0        0.944760   17.748754   12.640748
     26          6           0        1.186077   11.378866   12.983815
     27          6           0        1.804656   16.522945   12.970333
     28          6           0        3.780666   13.111315   14.343491
     29          6           0       -0.981719   17.885225   14.338494
     30          6           0        3.531633   10.346286   13.341094
     31          6           0        1.494700   19.066725   13.271107
     32          6           0        4.962857   10.340679   12.768929
     33          6           0        0.758888   20.290540   12.691143
     34          6           0        2.870141    8.968551   13.133676
     35          6           0        3.012826   19.199814   13.034339
     36          8           0        2.657976   16.261513   11.941402
     37          6           0        3.591489   15.165116   12.153779
     38          6           0        2.809902   13.848811   12.192072
     39          6           0       -1.171607   16.656662   12.197078
     40          6           0        4.582914   15.192898   10.953444
     41          6           0       -3.205582   17.526783   10.941284
     42          6           0        5.603450   14.042102   11.033090
     43          6           0       -2.634295   18.956581   10.940443
     44          6           0        5.302143   16.554937   10.902181
     45          6           0       -4.745981   17.555596   10.934665
     46          1           0        4.849959   12.850781   14.360255
     47          1           0        3.631173   14.164372   14.611002
     48          1           0        3.239546   12.510888   15.089280
     49          1           0       -1.755003   10.959664   14.614474
     50          1           0       -2.974491   12.146227   15.086824
     51          1           0       -3.506756   10.583198   14.368003
     52          1           0       -0.192986   17.674064   15.076089
     53          1           0       -1.244187   18.953496   14.366169
     54          1           0       -1.846464   17.266882   14.606897
     55          1           0        4.139945   15.343013   13.091848
     56          1           0        3.975362   15.071137   10.035897
     57          1           0        0.961342   17.866659   11.544118
     58          1           0        1.335147   19.024453   14.363897
     59          1           0       -2.849262   16.999646   10.035263
     60          1           0       -4.896941   12.818990   14.389296
     61          1           0       -1.045349   10.260751   10.015838
     62          1           0       -1.035507    9.901308   13.064500
     63          1           0       -3.715648   13.071955   11.566085
     64          1           0       -3.121748   17.111791   13.090367
     65          1           0       -5.136259   18.083916   11.824276
     66          1           0       -5.100407   18.097947   10.041720
     67          1           0       -5.178859   16.543048   10.912563
     68          1           0       -1.536554   18.981416   10.831424
     69          1           0       -3.059824   19.517463   10.091651
     70          1           0       -2.906294   19.501294   11.862793
     71          1           0        3.589606   18.393584   13.519657
     72          1           0        3.257255   19.205114   11.957355
     73          1           0        3.361668   20.155207   13.460721
     74          1           0        1.122546   21.210687   13.178911
     75          1           0        0.954953   20.386129   11.607472
     76          1           0       -0.334004   20.248467   12.833912
     77          1           0        5.985352   16.576792   10.036106
     78          1           0        4.594551   17.392389   10.799764
     79          1           0        5.908599   16.719113   11.812009
     80          1           0        6.202904   14.099340   11.960014
     81          1           0        5.134294   13.044784   10.982172
     82          1           0        6.304136   14.117674   10.184984
     83          1           0        3.571036   10.528404   14.430243
     84          1           0        2.791782   11.379003   11.585266
     85          1           0        4.952101   10.085697   11.693204
     86          1           0        5.477893   11.309641   12.881430
     87          1           0        5.570101    9.579267   13.286926
     88          1           0        3.515680    8.189729   13.572780
     89          1           0        1.884602    8.894905   13.624964
     90          1           0        2.744681    8.734381   12.061813
     91          1           0        0.502705    8.446676   10.864798
     92          1           0       -0.866047    7.689299   11.736372
     93          1           0       -0.873450    7.767663    9.955193
     94          1           0       -3.201584    8.919249   11.792849
     95          1           0       -3.423831   10.399508   10.807474
     96          1           0       -3.127866    8.835478   10.018543
     97          1           0       -6.008318   14.383734   11.974996
     98          1           0       -6.897501   13.990382   13.468130
     99          1           0       -5.493116   15.078607   13.543545
    100          1           0       -5.114679   10.753339   12.868054
    101          1           0       -6.678776   11.530745   13.209639
    102          1           0       -5.881857   11.792432   11.636699
    103         12           0        0.022732   14.111942   11.075792
 ---------------------------------------------------------------------
 Rotational constants (GHZ):      0.0732012      0.0731496      0.0415390
 General basis read from cards:  (5D, 7F)
   776 basis functions,  1544 primitive gaussians,   824 cartesian basis functions
   179 alpha electrons      179 beta electrons
       nuclear repulsion energy      7168.1211577615 Hartrees.
 NAtoms=  103 NActive=  103 NUniq=  103 SFac= 1.00D+00 NAtFMM=   60 NAOKFM=T Big=T
 Integral buffers will be    131072 words long.
 Raffenetti 2 integral format.
 Two-electron integral symmetry is turned off.
 Force inversion solution in PCM.
 ------------------------------------------------------------------------------
 Polarizable Continuum Model (PCM)
 =================================
 Model                : PCM (using non-symmetric T matrix).
 Atomic radii         : UFF (Universal Force Field).
 Polarization charges : Total charges.
 Charge compensation  : None.
 Solution method      : Matrix inversion.
 Cavity type          : Scaled VdW (van der Waals Surface) (Alpha=1.100).
 Cavity algorithm     : GePol (No added spheres)
                        Default sphere list used, NSphG=  103.
                        Lebedev-Laikov grids with approx.  5.0 points / Ang**2.
                        Smoothing algorithm: Karplus/York (Gamma=1.0000).
                        Polarization charges: spherical gaussians, with
                                              point-specific exponents (IZeta= 3).
                        Self-potential: point-specific (ISelfS= 7).
                        Self-field    : sphere-specific E.n sum rule (ISelfD= 2).
 1st derivatives      : Analytical E(r).r(x)/FMM algorithm (CHGder, D1EAlg=3).
                        Cavity 1st derivative terms included.
 2nd derivatives      : Analytical E(r).r(xy)/FMM algorithm (CHGder, D2EAlg=3).
                        Cavity 2nd derivative terms included.
 Solvent              : n-Pentadecane, Eps=   2.033300 Eps(inf)=   2.049192
 ------------------------------------------------------------------------------
 One-electron integrals computed using PRISM.
 NBasis=   776 RedAO= T EigKep=  2.01D-03  NBF=   776
 NBsUse=   776 1.00D-06 EigRej= -1.00D+00 NBFU=   776
 Initial guess from the checkpoint file:  "nP_EB11Mg_out.chk"
 B after Tr=     0.000000    0.000000    0.000000
         Rot=    1.000000    0.000000    0.000000    0.000000 Ang=   0.00 deg.
 Requested convergence on RMS density matrix=1.00D-08 within 128 cycles.
 Requested convergence on MAX density matrix=1.00D-06.
 Requested convergence on             energy=1.00D-06.
 No special actions if energy rises.
 Inv3:  Mode=1 IEnd=    97743792.
 Iteration    1 A*A^-1 deviation from unit magnitude is 4.22D-15 for   2835.
 Iteration    1 A*A^-1 deviation from orthogonality  is 4.04D-15 for   4769   2323.
 Iteration    1 A^-1*A deviation from unit magnitude is 4.77D-15 for   5141.
 Iteration    1 A^-1*A deviation from orthogonality  is 3.99D-15 for   5026   5007.
 Error on total polarization charges =  0.00713
 SCF Done:  E(RB-P86) =  -2332.98931496     A.U. after    1 cycles
            NFock=  1  Conv=0.23D-08     -V/T= 2.0076
 QCSCF skips out because SCF is already converged.
 Range of M.O.s used for correlation:     1   776
 NBasis=   776 NAE=   179 NBE=   179 NFC=     0 NFV=     0
 NROrb=    776 NOA=   179 NOB=   179 NVA=   597 NVB=   597
 Symmetrizing basis deriv contribution to polar:
 IMax=3 JMax=2 DiffMx= 0.00D+00
 G2DrvN: will do   104 centers at a time, making    1 passes.
 Calling FoFCou, ICntrl=  3507 FMM=T I1Cent=   0 AccDes= 0.00D+00.
 NEqPCM:  Using equilibrium solvation (IEInf=0, Eps=   2.0333, EpsInf=   2.0492)
 G2PCM: DoFxE=T DoFxN=T DoGrad=T DoDP/DQ/DG/TGxP=FFFF NFrqRd=   0 IEInf=0 SqF1=F DoCFld=F IF1Alg=4.
 End of G2Drv F.D. properties file   721 does not exist.
 End of G2Drv F.D. properties file   722 does not exist.
 End of G2Drv F.D. properties file   788 does not exist.
          IDoAtm=11111111111111111111111111111111111111111111111111
          IDoAtm=11111111111111111111111111111111111111111111111111
          IDoAtm=111
 NEqPCM:  Using equilibrium solvation (IEInf=0, Eps=   2.0333, EpsInf=   2.0492)
          Differentiating once with respect to electric field.
                with respect to dipole field.
          Differentiating once with respect to nuclear coordinates.
 CalDSu exits because no D1Ps are significant.
          There are   312 degrees of freedom in the 1st order CPHF.  IDoFFX=6 NUNeed=     3.
    311 vectors produced by pass  0 Test12= 1.07D-13 1.00D-09 XBig12= 4.60D+02 4.28D+00.
 AX will form    72 AO Fock derivatives at one time.
    309 vectors produced by pass  1 Test12= 1.07D-13 1.00D-09 XBig12= 3.00D+02 2.39D+00.
    309 vectors produced by pass  2 Test12= 1.07D-13 1.00D-09 XBig12= 7.60D-01 5.17D-02.
    309 vectors produced by pass  3 Test12= 1.07D-13 1.00D-09 XBig12= 8.98D-04 1.91D-03.
    193 vectors produced by pass  4 Test12= 1.07D-13 1.00D-09 XBig12= 1.55D-07 2.44D-05.
     27 vectors produced by pass  5 Test12= 1.07D-13 1.00D-09 XBig12= 9.80D-12 1.18D-07.
      3 vectors produced by pass  6 Test12= 1.07D-13 1.00D-09 XBig12= 2.66D-15 3.53D-09.
 InvSVY:  IOpt=1 It=  1 EMax= 2.13D-14
 Solved reduced A of dimension  1461 with   312 vectors.
 Isotropic polarizability for W=    0.000000      471.25 Bohr**3.
 End of Minotr F.D. properties file   721 does not exist.
 End of Minotr F.D. properties file   722 does not exist.
 End of Minotr F.D. properties file   788 does not exist.

 **********************************************************************

            Population analysis using the SCF density.

 **********************************************************************

 Alpha  occ. eigenvalues --  -46.41413 -18.95936 -18.95900 -18.95863 -18.92949
 Alpha  occ. eigenvalues --  -18.92935 -18.92880 -18.90869 -18.90778 -18.90756
 Alpha  occ. eigenvalues --  -14.20182 -14.20080 -14.20055 -10.15906 -10.15895
 Alpha  occ. eigenvalues --  -10.15861 -10.15540 -10.15445 -10.15424 -10.09785
 Alpha  occ. eigenvalues --  -10.09750 -10.09715 -10.07934 -10.07882 -10.07862
 Alpha  occ. eigenvalues --  -10.04886 -10.04875 -10.04849 -10.02889 -10.02851
 Alpha  occ. eigenvalues --  -10.02824 -10.02756 -10.02722 -10.02693  -9.99184
 Alpha  occ. eigenvalues --   -9.99129  -9.99116  -9.98921  -9.98892  -9.98882
 Alpha  occ. eigenvalues --   -9.98823  -9.98801  -9.98788  -9.98437  -9.98433
 Alpha  occ. eigenvalues --   -9.98407  -3.08064  -1.87403  -1.87029  -1.87020
 Alpha  occ. eigenvalues --   -1.13614  -1.13422  -1.13381  -1.09705  -1.09658
 Alpha  occ. eigenvalues --   -1.09448  -1.05012  -1.04880  -1.04839  -0.99368
 Alpha  occ. eigenvalues --   -0.99348  -0.99292  -0.86727  -0.85660  -0.85636
 Alpha  occ. eigenvalues --   -0.83823  -0.83809  -0.83153  -0.78579  -0.78249
 Alpha  occ. eigenvalues --   -0.78226  -0.77130  -0.76981  -0.76975  -0.75039
 Alpha  occ. eigenvalues --   -0.75016  -0.72459  -0.71078  -0.70994  -0.70909
 Alpha  occ. eigenvalues --   -0.70898  -0.70763  -0.70748  -0.67966  -0.65778
 Alpha  occ. eigenvalues --   -0.65723  -0.63341  -0.63324  -0.62641  -0.61669
 Alpha  occ. eigenvalues --   -0.61244  -0.61224  -0.60773  -0.60591  -0.60553
 Alpha  occ. eigenvalues --   -0.59367  -0.59363  -0.59254  -0.58231  -0.58185
 Alpha  occ. eigenvalues --   -0.57871  -0.57248  -0.57158  -0.57105  -0.54715
 Alpha  occ. eigenvalues --   -0.53866  -0.53820  -0.53542  -0.52950  -0.52779
 Alpha  occ. eigenvalues --   -0.52761  -0.51762  -0.51746  -0.50748  -0.50682
 Alpha  occ. eigenvalues --   -0.50592  -0.49496  -0.49456  -0.49336  -0.48609
 Alpha  occ. eigenvalues --   -0.48400  -0.48360  -0.47758  -0.47573  -0.47541
 Alpha  occ. eigenvalues --   -0.46957  -0.46914  -0.46802  -0.46348  -0.46325
 Alpha  occ. eigenvalues --   -0.45901  -0.45444  -0.45377  -0.45348  -0.44906
 Alpha  occ. eigenvalues --   -0.44844  -0.44804  -0.44189  -0.44188  -0.44154
 Alpha  occ. eigenvalues --   -0.43606  -0.43553  -0.43333  -0.42640  -0.42599
 Alpha  occ. eigenvalues --   -0.42578  -0.42491  -0.42464  -0.42443  -0.40789
 Alpha  occ. eigenvalues --   -0.40695  -0.40456  -0.40073  -0.40020  -0.39993
 Alpha  occ. eigenvalues --   -0.39781  -0.39705  -0.39699  -0.39336  -0.39253
 Alpha  occ. eigenvalues --   -0.39226  -0.38996  -0.38985  -0.38957  -0.38781
 Alpha  occ. eigenvalues --   -0.38749  -0.38725  -0.38501  -0.38472  -0.38436
 Alpha  occ. eigenvalues --   -0.37570  -0.37538  -0.36751  -0.36622  -0.36414
 Alpha  occ. eigenvalues --   -0.36363  -0.34553  -0.34442  -0.33734
 Alpha virt. eigenvalues --   -0.19035  -0.17986  -0.17937  -0.15875  -0.15617
 Alpha virt. eigenvalues --   -0.15590  -0.13712  -0.08316  -0.06080  -0.05821
 Alpha virt. eigenvalues --   -0.05777  -0.04956  -0.04933  -0.04311  -0.03635
 Alpha virt. eigenvalues --   -0.03591  -0.03316  -0.02441  -0.02379  -0.01822
 Alpha virt. eigenvalues --   -0.01724  -0.01338  -0.01294  -0.01170  -0.00830
 Alpha virt. eigenvalues --   -0.00291  -0.00220  -0.00141   0.00172   0.00262
 Alpha virt. eigenvalues --    0.00463   0.00474   0.00585   0.00971   0.01536
 Alpha virt. eigenvalues --    0.01556   0.01609   0.02279   0.02386   0.02489
 Alpha virt. eigenvalues --    0.02597   0.03014   0.03030   0.03145   0.03915
 Alpha virt. eigenvalues --    0.03945   0.04271   0.04322   0.04379   0.04583
 Alpha virt. eigenvalues --    0.04800   0.04849   0.05354   0.05371   0.05391
 Alpha virt. eigenvalues --    0.05473   0.05732   0.05816   0.06180   0.06340
 Alpha virt. eigenvalues --    0.06411   0.06790   0.06993   0.07003   0.07842
 Alpha virt. eigenvalues --    0.07881   0.07965   0.08268   0.08277   0.08330
 Alpha virt. eigenvalues --    0.08490   0.09103   0.09173   0.09401   0.09616
 Alpha virt. eigenvalues --    0.09781   0.09804   0.09897   0.09992   0.10468
 Alpha virt. eigenvalues --    0.10614   0.10771   0.10894   0.11029   0.11161
 Alpha virt. eigenvalues --    0.11476   0.11962   0.12040   0.12100   0.12214
 Alpha virt. eigenvalues --    0.12297   0.12596   0.12678   0.12790   0.12907
 Alpha virt. eigenvalues --    0.13220   0.13240   0.13301   0.13680   0.13798
 Alpha virt. eigenvalues --    0.14344   0.14661   0.14723   0.15607   0.16881
 Alpha virt. eigenvalues --    0.17033   0.17470   0.17567   0.18514   0.19629
 Alpha virt. eigenvalues --    0.21885   0.21955   0.22318   0.24369   0.24895
 Alpha virt. eigenvalues --    0.24926   0.27246   0.27321   0.28487   0.28611
 Alpha virt. eigenvalues --    0.29829   0.32739   0.32916   0.33524   0.33688
 Alpha virt. eigenvalues --    0.33827   0.34419   0.34982   0.35019   0.35117
 Alpha virt. eigenvalues --    0.36324   0.36429   0.37179   0.37751   0.37847
 Alpha virt. eigenvalues --    0.38179   0.38399   0.38563   0.38674   0.39607
 Alpha virt. eigenvalues --    0.39655   0.40284   0.41538   0.41564   0.41753
 Alpha virt. eigenvalues --    0.41814   0.42056   0.42169   0.42819   0.43216
 Alpha virt. eigenvalues --    0.43320   0.44369   0.44551   0.44625   0.45028
 Alpha virt. eigenvalues --    0.45271   0.45556   0.46598   0.46633   0.47147
 Alpha virt. eigenvalues --    0.47181   0.47338   0.48379   0.49138   0.49237
 Alpha virt. eigenvalues --    0.49324   0.49656   0.49720   0.49829   0.50432
 Alpha virt. eigenvalues --    0.50788   0.50954   0.51309   0.52325   0.52412
 Alpha virt. eigenvalues --    0.53309   0.53817   0.53915   0.54869   0.54927
 Alpha virt. eigenvalues --    0.55156   0.55477   0.55608   0.55674   0.56464
 Alpha virt. eigenvalues --    0.56554   0.56661   0.57612   0.57745   0.58352
 Alpha virt. eigenvalues --    0.58811   0.58852   0.59179   0.60054   0.61380
 Alpha virt. eigenvalues --    0.61709   0.62170   0.62367   0.63036   0.63119
 Alpha virt. eigenvalues --    0.63218   0.63585   0.64014   0.64120   0.64337
 Alpha virt. eigenvalues --    0.65670   0.65828   0.66206   0.66678   0.66790
 Alpha virt. eigenvalues --    0.67055   0.67135   0.67397   0.67475   0.67515
 Alpha virt. eigenvalues --    0.68018   0.68578   0.69479   0.69624   0.70531
 Alpha virt. eigenvalues --    0.71702   0.71935   0.72296   0.72328   0.72451
 Alpha virt. eigenvalues --    0.72658   0.73454   0.73615   0.73793   0.74018
 Alpha virt. eigenvalues --    0.74086   0.74646   0.74707   0.74870   0.74889
 Alpha virt. eigenvalues --    0.75596   0.75636   0.75749   0.76067   0.76134
 Alpha virt. eigenvalues --    0.76370   0.76789   0.76906   0.76985   0.77036
 Alpha virt. eigenvalues --    0.77264   0.77793   0.78529   0.78937   0.79082
 Alpha virt. eigenvalues --    0.79502   0.79587   0.79973   0.80350   0.80511
 Alpha virt. eigenvalues --    0.80576   0.80663   0.80786   0.81383   0.81501
 Alpha virt. eigenvalues --    0.81744   0.82368   0.82512   0.82555   0.83040
 Alpha virt. eigenvalues --    0.83474   0.83627   0.84227   0.84396   0.84667
 Alpha virt. eigenvalues --    0.85464   0.86214   0.86280   0.86449   0.87644
 Alpha virt. eigenvalues --    0.87835   0.87974   0.88203   0.88421   0.88780
 Alpha virt. eigenvalues --    0.89077   0.89130   0.90157   0.90277   0.90436
 Alpha virt. eigenvalues --    0.90856   0.91198   0.92124   0.92256   0.92448
 Alpha virt. eigenvalues --    0.93206   0.94447   0.94955   0.95219   0.95865
 Alpha virt. eigenvalues --    0.96364   0.96524   0.96962   0.97187   0.98338
 Alpha virt. eigenvalues --    0.98459   1.00063   1.00336   1.01314   1.01489
 Alpha virt. eigenvalues --    1.02050   1.03434   1.03500   1.03892   1.04807
 Alpha virt. eigenvalues --    1.05665   1.06074   1.06202   1.07132   1.07436
 Alpha virt. eigenvalues --    1.07740   1.10653   1.10832   1.11395   1.11654
 Alpha virt. eigenvalues --    1.11834   1.13325   1.14195   1.14281   1.14723
 Alpha virt. eigenvalues --    1.15013   1.16320   1.16577   1.18749   1.18991
 Alpha virt. eigenvalues --    1.19237   1.21889   1.22540   1.22839   1.23745
 Alpha virt. eigenvalues --    1.24001   1.26392   1.26674   1.27523   1.27884
 Alpha virt. eigenvalues --    1.28679   1.28945   1.29130   1.30938   1.30982
 Alpha virt. eigenvalues --    1.31273   1.32743   1.32835   1.33087   1.33264
 Alpha virt. eigenvalues --    1.33446   1.35219   1.35847   1.36063   1.36557
 Alpha virt. eigenvalues --    1.37033   1.38069   1.38452   1.39503   1.39576
 Alpha virt. eigenvalues --    1.41586   1.41696   1.41999   1.43762   1.43916
 Alpha virt. eigenvalues --    1.44328   1.46430   1.46630   1.47455   1.48497
 Alpha virt. eigenvalues --    1.48832   1.49107   1.50710   1.51659   1.51994
 Alpha virt. eigenvalues --    1.52197   1.52387   1.52999   1.53637   1.54700
[...]
 672,-0.00000320,0.00000345,0.00000029,0.00000808,0.00000580,0.00000364
 ,0.00000063,-0.00000165,0.00000015,-0.00000004,-0.00000063,0.00000098,
 0.00000141,0.00000022,-0.00000055,0.00000002,-0.00000013,-0.00000028,-
 0.00000059,0.00000080,0.00000057,0.,0.00000064,0.00000071,0.00000049,-
 0.00000046,-0.00000036,-0.00000012,0.00000086,-0.00000124,-0.00000116,
 0.00000065,0.00000036,-0.00000033,-0.00000027,-0.00000046,0.00000051,-
 0.00000019,-0.00000001,0.00000017,-0.00000023,-0.00000034,0.00000023,-
 0.00000046,-0.00000018,0.00000085,0.00000086,0.00000013,-0.00000033,-0
 .00000050,-0.00000132,-0.00000062,0.00000242,0.00000139,-0.00000082,0.
 ,0.00000021,-0.00000095,-0.00000035,0.00000012,-0.00000011,0.00000088,
 -0.00000021,0.,0.,-0.00000064,-0.00000011,0.00000126,0.00000065,0.0000
 0044,0.00000192,0.00000055,-0.00000251,-0.00001630,0.00001976,0.000000
 36,0.00000434,0.00000371,0.,0.00001188,-0.00001172,-0.00000452,0.00002
 399,0.00001620,0.00001561,0.00057877,0.00003121,-0.00019628,0.00001893
 ,-0.00000054,-0.00003348,-0.00006533,0.00035514,0.00067742,0.00012450,
 -0.00007989,0.00001490,-0.00001674,0.00025539,0.00033608,0.00278994,-0
 .00243023,0.02586770,0.00113656,-0.00139166,0.00326329,-0.00304545,0.0
 5291247,-0.00008956,0.00011424,0.00003774,0.00064263,0.00034097,0.0006
 4222,0.00000025,0.00020127,0.00021124,0.00011272,0.00005379,0.00007030
 ,0.00008840,0.00008045,-0.00015144,-0.00157538,0.00063684,-0.01291562,
 -0.03863014,0.02946691,-0.28617677,0.00002179,0.00090759,0.00062532,0.
 00001806,-0.00017557,0.00009610,0.00000117,-0.00001134,-0.00003242,0.0
 0011714,-0.00004054,-0.00020863,-0.00010235,-0.00005239,0.00018073,-0.
 00007714,-0.00012305,-0.00001519,0.00000791,0.00024228,-0.00003986,0.0
 0007257,0.00003552,0.00002129,0.00003413,0.00003606,-0.00000424,0.0000
 1228,0.00004458,0.00005696,-0.00001140,-0.00000547,0.00002154,-0.00001
 023,-0.00000211,0.00001065,-0.00000646,-0.00000977,0.00001491,-0.00004
 524,0.00002142,0.00004750,-0.00000233,-0.00000162,0.00000477,-0.000007
 41,-0.00000592,0.00000464,0.00000060,0.00000471,0.00000336,0.00000598,
 0.00000345,-0.00000440,0.00003090,-0.00003865,-0.00007474,0.00000865,0
 .00000547,-0.00002666,0.00000082,0.00000067,-0.00000180,0.00000471,0.0
 0000250,-0.00000357,0.00000122,-0.00000494,0.00000206,0.00000043,0.000
 00371,0.00000018,0.00000006,0.00000129,-0.00000233,-0.00000032,-0.0000
 0024,-0.00000129,0.00000278,-0.00000018,-0.00000401,0.00000074,-0.0000
 0133,-0.00000113,-0.00001218,0.00000358,0.00001419,0.00000426,-0.00000
 261,-0.00000073,0.00000267,0.00000564,-0.00000493,0.00001428,0.0000025
 3,-0.00001032,0.00000201,-0.00000133,-0.00000534,-0.00001176,0.0000042
 7,-0.00002160,-0.00000045,-0.00000065,0.00000146,0.00000999,-0.0000027
 8,0.00000871,-0.00000081,0.00000127,0.00000223,-0.00000474,-0.00002044
 ,0.00000965,-0.00000082,0.00000030,0.00000091,0.00000170,0.00000100,-0
 .00000120,0.00000198,-0.00000197,-0.00000004,-0.00003712,-0.00002251,0
 .00004478,0.00006804,0.00002110,0.00008684,0.00000882,-0.00013367,0.00
 002641,0.00000239,0.00000221,-0.00000060,-0.00000044,-0.00000116,0.000
 00065,-0.00000135,0.00000608,-0.00000270,0.00000042,0.00000053,-0.0000
 0013,0.00000041,-0.00000003,0.00000067,-0.00000103,0.00000002,0.000000
 56,0.00000056,-0.00000014,0.00000160,-0.00000288,-0.00000062,0.0000040
 1,-0.00131119,-0.00217613,0.00065953,0.00000506,0.00001059,0.00000649,
 0.00000630,-0.00001832,-0.00000045,-0.00095283,-0.00026393,0.00008891,
 -0.00000668,-0.00000734,0.00000226,0.00000122,0.00000890,0.00000249,0.
 00000226,-0.00000728,0.00000291,-0.00000293,0.00000292,-0.00001200,0.0
 0000209,0.00000291,-0.00000173,-0.00000122,-0.00000573,0.00000159,-0.0
 0000105,0.00000215,0.00000016,0.00000076,-0.00000026,0.00000006,-0.000
 00026,0.00000039,0.00000115,-0.00000067,-0.00000037,-0.00000037,0.0000
 0016,-0.00000072,-0.00000014,-0.00000099,0.00000002,0.00000156,-0.0000
 0059,0.00000109,-0.00000111,-0.00000133,-0.00000057,0.00000036,0.00000
 051,0.00000017,-0.00000114,0.00000056,-0.00000003,0.00000023,0.0000006
 9,0.00000051,0.00000006,0.00000054,-0.00000013,-0.00000137,-0.00000136
 ,-0.00000019,0.00000046,0.00000097,0.00000156,0.00000135,-0.00000325,-
 0.00000168,0.00000111,0.00000006,0.00000008,0.00000144,0.00000009,-0.0
 0000034,-0.00000021,-0.00000100,0.00000009,-0.00000001,-0.00000005,0.0
 0000055,-0.00000010,-0.00000244,-0.00000084,-0.00000069,-0.00000218,-0
 .00000057,0.00000329,0.00002039,-0.00002187,-0.00000217,-0.00000636,-0
 .00000275,-0.00000005,-0.00001149,0.00001305,0.00000437,0.00001237,-0.
 00004904,0.00001102,0.00069981,-0.00028468,-0.00005861,0.00001502,-0.0
 0003104,0.00001305,0.00016053,-0.00075342,0.00100986,0.00000513,-0.000
 07900,-0.00011932,0.00007483,-0.00003756,0.00041383,0.00024692,0.00026
 279,-0.00304678,-0.00311245,0.00176546,-0.01263696,0.04345970,-0.02994
 061,0.31116982,0.00487310,0.00165671,-0.00391770,-0.00090201,0.0004653
 6,0.00004607,-0.00769139,-0.00295451,0.00746998,0.00143806,-0.00041427
 ,-0.00085146,0.00034293,-0.00100541,0.00121788,-0.00094049,-0.00005596
 ,0.00037519,0.00025701,-0.00013876,-0.00031181,0.00024176,0.00023059,-
 0.00020355,0.00080965,-0.00104871,-0.00161461,0.00429023,0.00191425,-0
 .00105980,-0.00803059,-0.01261980,0.01173290,-0.05158620,-0.04449152,-
 0.00119528,-0.00105851,0.00001100,-0.00105761,0.00014452,-0.00024300,0
 .00002727,0.00053907,0.00002948,0.00043847,0.00021428,0.00252772,0.001
 22409,-0.00437920,-0.00153844,-0.00141125,-0.00647521,0.02109403,-0.00
 090829,-0.06182980,0.01920558,0.00123170,-0.00151194,0.00147521,0.0013
 7100,-0.00268724,-0.00059934,-0.00096392,0.00545567,-0.00714658,0.0078
 4829,-0.00235548,-0.00335324,-0.00376339,0.00096154,0.00328674,0.00076
 717,0.00245723,0.00024256,-0.00080367,0.00418514,0.00418148,-0.0002079
 2,0.00194012,-0.00775009,-0.00780097,-0.00114823,-0.00145261,-0.001324
 74,-0.00083980,0.00007881,0.00010976,-0.00079912,0.00031083,-0.0002403
 9,-0.00058226,0.00001535,-0.00015954,0.00001367,-0.00003379,0.00019473
 ,0.00022551,0.00011731,0.00012908,0.00059903,-0.00002315,0.00020566,0.
 00021413,-0.00019961,-0.00001738,-0.00244708,0.00317482,0.00349496,0.0
 0149769,-0.00118032,-0.00008127,-0.02403005,0.00236168,-0.02095519,-0.
 00385831,0.00960825,0.00804640,-0.00100277,0.00099871,0.00113553,-0.00
 012676,0.00036734,-0.00012805,-0.00004206,0.00011414,-0.00017925,0.000
 33782,0.00005203,0.00012621,0.00044678,-0.00062997,-0.00059738,-0.0000
 9037,-0.00014446,0.00019448,0.00045335,0.00015824,0.00060067,0.0000906
 1,0.00000597,0.00011738,0.00036333,0.00021990,0.00075672,0.00015742,0.
 00020747,-0.00022260,-0.00003702,0.00012805,-0.00029121,0.00009072,0.0
 0031569,-0.00045075,0.00026459,-0.00017155,-0.00049062,0.00013666,-0.0
 0008489,-0.00016801,-0.00007232,0.00018060,0.00013106,0.00046387,0.001
 03974,0.00009742,-0.00014260,-0.00017525,0.00054449,-0.00002111,-0.000
 05430,-0.00002390,0.00008297,0.00002969,0.00005761,0.00000864,0.000108
 26,-0.00041547,0.00018934,0.00011487,-0.00014066,0.00029920,-0.0001787
 4,-0.00006600,-0.00101273,0.00081260,-0.00000776,-0.00066010,-0.000289
 22,-0.00006174,-0.00009758,-0.00037179,-0.00010331,0.00005136,-0.00001
 587,-0.00007157,0.00011604,-0.00006978,0.00006616,-0.00019410,0.000010
 37,-0.00006948,-0.00008625,0.00006615,-0.00005670,0.00000931,-0.000146
 37,0.00004904,-0.00003782,-0.00009422,-0.00009801,-0.00017975,0.000072
 24,-0.00017125,-0.00002271,-0.00011391,0.00010520,-0.00014184,0.000095
 49,0.00003887,-0.00008820,0.00005448,-0.00005804,0.00001975,-0.0000083
 5,0.00000485,-0.00015442,0.00013177,0.00002742,0.00021192,0.00032089,-
 0.00005442,-0.00013119,0.00002042,0.00002682,0.00007011,0.00006828,0.0
 0008006,0.00002023,-0.00007158,0.00016825,-0.00021604,0.00023864,0.000
 15468,0.00021474,0.00003352,-0.00010031,0.00020971,-0.00002518,0.00008
 116,-0.00055546,0.00021280,0.00009915,-0.00004613,0.00004611,-0.000045
 61,-0.00031613,0.00003369,-0.00001837,0.00008843,-0.00015060,0.0000297
 1,-0.00008858,-0.00025005,-0.00001399,-0.00014709,-0.00001698,0.000089
 09,-0.00000435,0.00001364,-0.00011869,-0.00017422,0.00009018,0.0000213
 3,-0.00004116,0.00004867,-0.00001187,-0.00014497,0.00021284,-0.0000103
 2,-0.00004288,-0.00002948,-0.00006946,-0.00039310,0.00013432,-0.000124
 58,-0.00004819,0.00012101,0.00006478,-0.00012156,-0.00003170,0.0000099
 3,0.00018930,-0.00003857,-0.00001880,-0.00007621,0.00007356,0.00011061
 ,-0.00015351,-0.00007207,0.00000767,0.00017748,0.00011175,0.00003208,-
 0.00005379,-0.00005014,0.00003243,0.15465395,0.00730515,0.00043356,-0.
 00638879,-0.00214164,0.00255396,-0.00097722,0.00018306,0.00785310,-0.0
 0205854,-0.00077610,-0.00248647,0.00063124,0.00059485,-0.00136237,0.00
 080139,-0.00018801,-0.00061495,0.00002292,-0.00010943,0.00008197,-0.00
 002184,0.00020665,0.00044277,-0.00013574,-0.00152872,-0.00467553,0.002
 73482,-0.00043592,-0.00033258,0.00080643,-0.01202719,-0.01594393,0.015
 89506,-0.04304519,-0.04779736,0.00423879,-0.00087087,-0.00036550,-0.00
 070161,-0.00018514,0.00018915,0.00015041,0.00051305,-0.00002725,0.0004
 8647,0.00046579,0.00387516,0.00054176,-0.00196656,0.00073471,-0.002677
 68,0.01641726,-0.06844671,-0.00066795,0.01598577,-0.00392857,-0.004089
 86,0.00072848,-0.00178410,0.00031165,-0.00163653,0.00158267,-0.0010760
 1,-0.00138334,-0.00004622,-0.00025608,0.00262898,0.00786657,0.00684474
 ,0.00061134,0.00067207,0.00052931,-0.00237345,-0.00077865,0.00041387,0
 .00688541,-0.00425916,0.00415559,-0.00579083,-0.00297709,-0.00657404,0
 .00017721,0.00010045,0.00066919,0.00174016,-0.00035385,-0.00149052,0.0
 0012596,-0.00076846,0.00035704,-0.00017651,-0.00101460,-0.00034374,0.0
 0000555,0.00031863,-0.00027557,0.00017738,0.00011694,0.00030782,-0.000
 04429,0.00010215,-0.00011411,-0.00020548,0.00051432,0.00026243,0.00253
 885,-0.00196178,0.00034820,-0.00365682,0.00256797,-0.00140302,0.003392
 87,0.00032577,0.00251406,0.01024472,-0.02112888,-0.01920040,0.00016689
 ,-0.00057251,-0.00050411,-0.00054874,-0.00128607,0.00131699,0.00013847
 ,0.00031987,-0.00007400,0.00015436,-0.00004331,-0.00015067,-0.00019110
 ,0.00018382,0.00010742,0.00031904,0.00067006,-0.00062220,-0.00011679,-
 0.00000586,-0.00017688,-0.00025388,0.00004673,-0.00021599,0.00007483,0
 .00000265,0.00007993,-0.00005812,-0.00006253,0.00004108,0.00001117,0.0
 0040894,-0.00068913,0.00004461,0.00034333,-0.00043456,-0.00030570,0.00
 017579,0.00063740,-0.00035599,0.00035141,0.00062767,-0.00009642,0.0001
 3394,0.00016495,0.00006290,-0.00091399,0.00007348,-0.00001627,0.000279
 65,0.00012132,0.00001152,-0.00083878,0.00011891,-0.00001215,0.00023543
 ,0.00011848,0.00033939,0.00009027,0.00041587,0.00002542,0.00011991,-0.
 00000785,0.00000734,-0.00015767,-0.00055793,-0.00014840,0.00059001,-0.
 00014762,-0.00021900,-0.00024109,-0.00006221,-0.00134178,-0.00027135,0
 .00007105,-0.00009779,-0.00001121,0.00004359,-0.00037821,0.00001669,-0
 .00002698,-0.00007410,-0.00013945,0.00002036,-0.00020653,-0.00034937,0
 .00020746,-0.00015750,0.00011016,-0.00009940,0.00003485,0.00001895,0.0
 0015081,-0.00000868,-0.00009650,-0.00001205,-0.00003629,-0.00009292,-0
 .00007795,0.00022044,0.00011827,-0.00000507,0.00004820,0.00021514,0.00
 000215,-0.00000959,-0.00007488,-0.00005241,0.00005745,-0.00028268,-0.0
 0002536,0.00001735,-0.00011501,-0.00004203,-0.00004915,-0.00021267,0.0
 0006418,-0.00000064,-0.00001029,0.00004617,0.00005642,-0.00004203,0.00
 001393,0.00002649,-0.00020182,-0.00003248,0.00003813,-0.00009745,0.000
 01151,-0.00010624,0.00012452,-0.00012929,0.00036052,-0.00016912,-0.000
 05514,0.00004693,-0.00001794,0.00001343,-0.00002897,-0.00011123,-0.000
 00698,-0.00015892,0.00003486,0.00005227,-0.00012389,0.00006761,-0.0000
 3537,-0.00008616,-0.00011674,0.00017427,0.00009961,-0.00010398,-0.0000
 4811,0.00000452,-0.00015449,-0.00006220,-0.00002936,0.00010075,-0.0001
 1338,-0.00007824,0.00027081,0.00006730,0.00008976,-0.00001286,-0.00013
 673,-0.00024885,-0.00001218,-0.00012858,0.00012173,0.00015820,0.000092
 88,0.00006773,0.00002901,0.00012339,0.00008716,-0.00021485,0.00003403,
 0.00000107,-0.00020219,-0.00017380,-0.00012242,-0.00026845,0.00003714,
 0.00009381,-0.00005795,-0.00004821,-0.00003096,-0.00000562,0.00002002,
 0.01048226,0.15307235,-0.00088605,0.00052952,-0.00022550,0.00045025,-0
 .00002388,0.00041010,0.00642913,0.00202358,0.00131529,-0.00314183,-0.0
 0115165,-0.00178184,0.00028796,0.00040460,-0.00029971,0.00043203,-0.00
 000330,-0.00035662,-0.00011838,0.00005137,0.00023931,-0.00006362,-0.00
 007252,0.00018390,-0.00045498,0.00135448,-0.00195715,0.00104739,0.0006
 7046,0.00011362,0.00489580,0.00633981,-0.00370891,0.00181466,0.0038249
 8,-0.02931952,0.00016384,-0.00021800,0.00130303,0.00004561,-0.00005743
 ,-0.00034782,-0.00011480,0.00001082,-0.00048690,0.00005917,-0.00120928
 ,0.00009286,-0.00104827,-0.00098996,-0.00198869,0.00120673,-0.00502989
 ,-0.00624096,-0.00167091,-0.00130838,-0.00684956,0.00044182,0.00184465
 ,-0.00235737,0.00124732,-0.00310590,-0.00219528,-0.00013524,-0.0008995
 7,-0.00035566,0.00085782,0.00041543,-0.00031072,-0.00026463,0.00035260
 ,0.00036565,-0.00021625,-0.00040492,0.00044802,-0.00280374,0.00492559,
 0.00408450,-0.00733242,-0.00869748,-0.00528580,-0.00045911,0.00007418,
 -0.00030109,0.00019326,-0.00045015,-0.00026985,-0.00019794,0.00039518,
 -0.00038746,-0.00021155,-0.00035334,-0.00035062,0.00001308,-0.00012296
 ,0.00024207,0.00010338,0.00007365,0.00023661,0.00009164,-0.00001739,0.
 00017045,-0.00002222,0.00008014,0.00017752,0.00131407,-0.00022282,-0.0
 0170012,-0.00111571,0.00047413,0.00007397,-0.00547624,0.00137344,-0.00
 478738,0.00249391,-0.00641682,-0.00383435,0.00002166,0.00030305,0.0012
 1961,-0.00022753,-0.00006166,0.00122157,0.00003856,0.00002447,-0.00033
 126,-0.00009708,0.00001189,-0.00031621,0.00008498,-0.00013269,-0.00043
 881,0.00003318,0.00010248,-0.00043850,0.00008143,-0.00002201,0.0000100
 6,-0.00015836,-0.00000775,0.00002092,-0.00009407,0.00009726,-0.0000009
 5,0.00008614,0.00014750,0.00000749,0.00012819,0.00002532,0.00001502,-0
 .00005485,-0.00006691,0.00001469,-0.00004494,-0.00012516,0.00000139,-0
 .00003095,0.00008459,0.00000570,0.00008579,-0.00014658,0.00000777,0.00
 002742,-0.00002776,-0.00004346,0.00000871,-0.00003294,-0.00029591,-0.0
 0009451,0.00020752,0.00003255,0.00000355,0.00001084,-0.00003714,-0.000
 04489,0.00000971,-0.00030581,-0.00001576,-0.00002055,-0.00002658,0.000
 00204,-0.00004095,-0.00030229,-0.00007877,-0.00002801,-0.00002982,-0.0
 0017477,-0.00015542,0.00000173,0.00003988,0.00008173,-0.00003851,0.000
 07601,-0.00006705,-0.00004926,-0.00014792,0.00009612,0.00000118,0.0000
 2557,-0.00001174,0.00013257,0.00003126,-0.00002726,0.00016649,-0.00006
 710,0.00013185,-0.00001115,0.00005525,-0.00009263,-0.00003852,-0.00008
 856,0.00000414,-0.00004237,0.00000726,-0.00001621,-0.00005011,0.000050
 86,0.00005695,-0.00001642,-0.00002382,0.00009229,-0.00004367,0.0000329
 8,0.00001709,-0.00006224,0.00000124,-0.00005952,0.00001195,0.00014954,
 0.00008982,0.00000157,-0.00002364,-0.00000707,0.00014722,-0.00009168,-
 0.00003256,-0.00004611,-0.00011312,-0.00000769,-0.00003724,-0.00004679
 ,0.00000722,0.00015321,0.00015028,-0.00000319,-0.00001322,0.00002256,-
 0.00000764,-0.00002229,0.00028477,0.00000274,0.00001840,-0.00001433,-0
 .00003026,-0.00005246,-0.00004326,0.00003624,0.00001592,0.00009777,-0.
 00002864,-0.00004603,0.00002609,-0.00007749,-0.00000937,0.00004346,0.0
 0007225,-0.00006164,-0.00002145,-0.00000473,-0.00005164,-0.00000893,0.
 00002612,0.00013260,0.00001439,0.00009549,-0.00003297,-0.00000785,-0.0
 0018719,0.00000517,0.00006780,0.00010872,-0.00003812,0.00002035,0.0000
 0414,0.00018030,-0.00008121,-0.00013194,-0.00001912,0.00000876,0.00001
 225,-0.00004529,-0.00008018,0.00002283,-0.00001268,0.00003766,-0.00008
 567,-0.00006389,0.00004466,0.00003582,0.00001191,-0.00007211,-0.000072
 96,-0.00004482,-0.00001305,0.00002364,-0.00005662,0.00231644,0.0053147
 3,0.06627749\\0.00000203,-0.00000523,-0.00000939,0.00000126,-0.0000063
 6,-0.00000798,-0.00000151,-0.00000570,-0.00000364,-0.00000328,-0.00000
 753,-0.00000199,0.00000107,-0.00000905,-0.00001110,0.00000033,-0.00000
 954,-0.00001071,0.00000327,-0.00000922,-0.00001507,-0.00000077,-0.0000
 1050,-0.00000904,-0.00000125,-0.00000388,-0.00000175,0.00000534,-0.000
 00073,-0.00001025,0.00000334,-0.00000173,-0.00000819,0.00000383,0.0000
 0066,-0.00000591,0.00000887,0.00000177,-0.00001351,0.00000926,-0.00000
 047,-0.00001622,0.00001090,0.00000297,-0.00001564,-0.00000322,-0.00000
 310,0.00000231,0.00000612,0.00000165,-0.00000785,-0.00000126,0.0000022
 9,0.00000374,0.00000244,0.00000557,0.00000157,-0.00000486,-0.00000149,
 0.00000685,0.00000110,-0.00000326,-0.00000519,0.00000090,0.00000312,0.
 00000141,-0.00000585,-0.00000232,0.00000753,0.00000353,0.00000328,-0.0
 0000253,-0.00000583,0.00000052,0.00001066,0.00000279,0.00000058,-0.000
 00470,-0.00000470,0.00000125,0.00000918,-0.00000154,0.00000062,0.00000
 327,-0.00000859,-0.00000643,0.00000805,0.00000409,0.00000270,-0.000004
 23,-0.00000863,0.00000011,0.00001481,0.00000497,0.00000648,-0.00000191
 ,-0.00000956,0.00000031,0.00001684,0.00000652,0.00000248,-0.00000876,-
 0.00000847,0.00000283,0.00001761,-0.00000226,0.00000490,0.00000943,-0.
 00000136,0.00000610,0.00000793,0.00000074,0.00000448,0.00000396,-0.000
 00329,-0.00000138,0.00000490,0.00000073,0.00001047,0.00000985,-0.00000
 297,-0.00000115,0.00000372,0.00000230,0.00001163,0.00000845,-0.0000049
 2,-0.00000023,0.00000810,-0.00000133,0.00001168,0.00001421,-0.00000279
 ,-0.00000332,0.00000130,-0.00000117,0.00000219,0.00000416,-0.00000341,
 -0.00000021,0.00000577,-0.00000174,-0.00000194,0.00000085,0.00000131,-
 0.00000828,-0.00001078,-0.00000121,-0.00001120,-0.00000966,0.00000224,
 -0.00001024,-0.00001441,-0.00000944,-0.00000705,0.00000867,-0.00001013
 ,-0.00000684,0.00001035,-0.00000801,-0.00000836,0.00000512,-0.00000284
 ,0.00000432,0.00000942,0.00000221,0.00001183,0.00000853,-0.00000423,0.
 00000359,0.00001096,-0.00001026,-0.00000303,0.00001434,-0.00000064,0.0
 0000179,0.00000285,-0.00000116,-0.00001234,-0.00001079,0.00000940,0.00
 000447,-0.00001145,0.00000542,-0.00000318,-0.00001233,0.00000276,-0.00
 000342,-0.00000857,-0.00000555,-0.00000641,0.00000273,-0.00000497,-0.0
 0000616,0.00000216,-0.00000227,-0.00000159,0.00000220,-0.00000131,-0.0
 0000393,-0.00000187,-0.00000481,0.00000168,0.00000988,-0.00000444,0.00
 000134,0.00000897,-0.00000719,-0.00000298,0.00000911,-0.00000801,0.000
 00251,0.00001630,-0.00000684,0.00000590,0.00001781,-0.00001057,0.00000
 228,0.00002044,-0.00001170,-0.00000033,0.00001966,-0.00000802,0.000003
 40,0.00001730,-0.00000980,-0.00000160,0.00001502,-0.00000005,0.0000147
 9,0.00001542,-0.00000240,0.00001085,0.00001533,-0.00000291,0.00001020,
 0.00001569,0.00000074,0.00001030,0.00000942,0.00000374,0.00001110,0.00
 000512,0.00000345,0.00001493,0.00000965,0.00000217,0.00000012,-0.00000
 372,0.00000537,0.00000624,-0.00000267,0.00000704,0.00000905,-0.0000027
 1,0.00000341,0.00000690,0.00000129,0.00000543,0.00000598,-0.00000298,0
 .00000699,0.00000218,-0.00000962,0.00000578,-0.00000035,-0.00001039,0.
 00000847,0.00000487,-0.00000942,0.00001074,0.00000465,-0.00001363,0.00
 001054,0.00000035,-0.00001766,0.00001316,0.00000484,-0.00001746,0.0000
 0861,-0.00000317,-0.00001809,0.00000793,-0.00000103,-0.00001467,0.0000
 1150,0.00000136,-0.00001826,0.00000023,-0.00000782,-0.00000858,-0.0000
 0151,-0.00001301,-0.00001091,-0.00000314,-0.00001105,-0.00000602,0.000
 00427,-0.00000877,-0.00001643,0.00000256,-0.00001197,-0.00001684,0.000
 00462,-0.00000685,-0.00001495,0.00000219,0.00000326,0.00000022\\\@


 THE UNDERLYING PHYSICAL LAWS NECESSARY FOR THE 
 MATHEMATICAL THEORY OF A LARGE PART OF PHYSICS AND THE
 WHOLE OF CHEMISTRY ARE THUS COMPLETELY KNOWN, AND THE
 DIFFICULTY IS ONLY THAT THE EXACT APPLICATION OF THESE
 LAWS LEADS TO EQUATIONS MUCH TOO COMPLICATED 
 TO BE SOLUBLE.

                                        -- P. A. M. DIRAC, 1929
 Job cpu time:       0 days 20 hours 21 minutes 38.3 seconds.
 File lengths (MBytes):  RWF=   7427 Int=      0 D2E=      0 Chk=     71 Scr=      1
 Normal termination of Gaussian 09 at Mon Oct 29 19:11:46 2018.
