 Entering Gaussian System, Link 0=g09
 Input=/work/kozuch/Enniatin/PCM-n-Pentadecane/Allfree/EB/TOptFreq/Enniatin_allfree.com
 Output=/work/kozuch/Enniatin/PCM-n-Pentadecane/Allfree/EB/TOptFreq/Enniatin_allfree.log
 Initial command:
 /afs/math/software/gaussian/g09.D01/opt/@sys/l1.exe "/scratch/kozuch_g09.gGaQ765/Gau-1176423.inp" -scrdir="/scratch/kozuch_g09.gGaQ765/"
 Entering Link 1 = /afs/math/software/gaussian/g09.D01/opt/@sys/l1.exe PID=   1176424.
  
 Copyright (c) 1988,1990,1992,1993,1995,1998,2003,2009,2013,
            Gaussian, Inc.  All Rights Reserved.
  
 This is part of the Gaussian(R) 09 program.  It is based on
 the Gaussian(R) 03 system (copyright 2003, Gaussian, Inc.),
 the Gaussian(R) 98 system (copyright 1998, Gaussian, Inc.),
 the Gaussian(R) 94 system (copyright 1995, Gaussian, Inc.),
 the Gaussian 92(TM) system (copyright 1992, Gaussian, Inc.),
 the Gaussian 90(TM) system (copyright 1990, Gaussian, Inc.),
 the Gaussian 88(TM) system (copyright 1988, Gaussian, Inc.),
 the Gaussian 86(TM) system (copyright 1986, Carnegie Mellon
 University), and the Gaussian 82(TM) system (copyright 1983,
 Carnegie Mellon University). Gaussian is a federally registered
 trademark of Gaussian, Inc.
  
 This software contains proprietary and confidential information,
 including trade secrets, belonging to Gaussian, Inc.
  
 This software is provided under written license and may be
 used, copied, transmitted, or stored only in accord with that
 written license.
  
 The following legend is applicable only to US Government
 contracts under FAR:
  
                    RESTRICTED RIGHTS LEGEND
  
 Use, reproduction and disclosure by the US Government is
 subject to restrictions as set forth in subparagraphs (a)
 and (c) of the Commercial Computer Software - Restricted
 Rights clause in FAR 52.227-19.
  
 Gaussian, Inc.
 340 Quinnipiac St., Bldg. 40, Wallingford CT 06492
  
  
 ---------------------------------------------------------------
 Warning -- This program may not be used in any manner that
 competes with the business of Gaussian, Inc. or will provide
 assistance to any competitor of Gaussian, Inc.  The licensee
 of this program is prohibited from giving any competitor of
 Gaussian, Inc. access to this program.  By using this program,
 the user acknowledges that Gaussian, Inc. is engaged in the
 business of creating and licensing software in the field of
 computational chemistry and represents and warrants to the
 licensee that it is not a competitor of Gaussian, Inc. and that
 it will not use this program in any manner prohibited above.
 ---------------------------------------------------------------
  

 Cite this work as:
 Gaussian 09, Revision D.01,
 M. J. Frisch, G. W. Trucks, H. B. Schlegel, G. E. Scuseria, 
 M. A. Robb, J. R. Cheeseman, G. Scalmani, V. Barone, B. Mennucci, 
 G. A. Petersson, H. Nakatsuji, M. Caricato, X. Li, H. P. Hratchian, 
 A. F. Izmaylov, J. Bloino, G. Zheng, J. L. Sonnenberg, M. Hada, 
 M. Ehara, K. Toyota, R. Fukuda, J. Hasegawa, M. Ishida, T. Nakajima, 
 Y. Honda, O. Kitao, H. Nakai, T. Vreven, J. A. Montgomery, Jr., 
 J. E. Peralta, F. Ogliaro, M. Bearpark, J. J. Heyd, E. Brothers, 
 K. N. Kudin, V. N. Staroverov, T. Keith, R. Kobayashi, J. Normand, 
 K. Raghavachari, A. Rendell, J. C. Burant, S. S. Iyengar, J. Tomasi, 
 M. Cossi, N. Rega, J. M. Millam, M. Klene, J. E. Knox, J. B. Cross, 
 V. Bakken, C. Adamo, J. Jaramillo, R. Gomperts, R. E. Stratmann, 
 O. Yazyev, A. J. Austin, R. Cammi, C. Pomelli, J. W. Ochterski, 
 R. L. Martin, K. Morokuma, V. G. Zakrzewski, G. A. Voth, 
 P. Salvador, J. J. Dannenberg, S. Dapprich, A. D. Daniels, 
 O. Farkas, J. B. Foresman, J. V. Ortiz, J. Cioslowski, 
 and D. J. Fox, Gaussian, Inc., Wallingford CT, 2013.
 
 ******************************************
 Gaussian 09:  ES64L-G09RevD.01 24-Apr-2013
                14-Feb-2017 
 ******************************************
 %chk=Enniatin_allfree.chk
 %mem=2GB
 ----------------------------------------------------------------------
 # bp86/6-31g* opt=tight int=ultrafine freq guess=checkpoint geom=check
 point nosymm scf=(xqc,maxconventionalcycles=128) scrf=(solvent=n-Penta
 decane)
 ----------------------------------------------------------------------
 1/7=10,14=-1,18=20,19=15,26=4,29=2,38=1/1,3;
 2/9=110,12=2,15=1,40=1/2;
 3/5=1,6=6,7=1,11=2,14=-4,16=1,25=1,30=1,70=2201,71=1,72=151,74=404,75=-5,116=-2/1,2,3;
 4/5=1/1;
 5/5=2,8=3,13=1,38=6,53=151,85=128/2,8;
 6/7=2,8=2,9=2,10=2,28=1/1;
 7/30=1/1,2,3,16;
 1/7=10,14=-1,18=20,19=15,26=4/3(2);
 2/9=110,15=1/2;
 99//99;
 2/9=110,15=1/2;
 3/5=1,6=6,7=1,11=2,14=-2,16=1,25=1,30=1,70=2205,71=1,72=151,74=404,75=-5/1,2,3;
 4/5=5,16=3,69=1/1;
 5/5=2,8=3,13=1,38=5,53=151,85=128/2,8;
 7/30=1/1,2,3,16;
 1/7=10,14=-1,18=20,19=15,26=4/3(-5);
 2/9=110,15=1/2;
 6/7=2,8=2,9=2,10=2,19=2,28=1/1;
 99/9=1/99;
 --------
 Enniatin
 --------
 Structure from the checkpoint file:  "Enniatin_allfree.chk"
 Charge =  0 Multiplicity = 1
 Redundant internal coordinates found in file.
 N,0,-2.8593528702,12.668749652,12.3981085689
 C,0,-3.7527390592,13.7940163765,12.0375492547
 C,0,-3.1114631222,15.1266918487,12.464224687
 O,0,-2.9643086496,15.4761865417,13.6351952851
 C,0,-2.6821026756,12.3583981645,13.8262843087
 C,0,-5.172025088,13.6495134702,12.6589697965
 C,0,-5.8258389927,12.3215114479,12.239224308
 C,0,-6.0674736287,14.8390312919,12.2632378032
 O,0,-2.7570499087,15.8692357301,11.3848948085
 C,0,-1.5732206248,10.6175422533,11.6880635421
 C,0,-2.3182134034,11.9381197127,11.354007249
 O,0,-2.449395941,12.2694856902,10.1666716782
 C,0,-2.0372714477,9.4954368274,10.7357695366
 C,0,-3.5399686111,9.2184719868,10.9354578237
 C,0,-1.2162134984,8.2097476922,10.9273272025
 C,0,-2.2414738564,17.2284772539,11.6247152391
 O,0,-0.1386082829,10.8448256201,11.4395355354
 O,0,-0.3403641564,17.1383072018,10.1455791589
 O,0,2.7516150208,12.931662828,10.1730254189
 O,0,2.6340418937,16.0228506802,13.6561968504
 O,0,0.3148681428,10.9373311923,13.6866040353
 N,0,2.6956720249,12.3850747603,12.4101075492
 N,0,0.1612946045,17.3360074547,12.3851259596
 C,0,2.1573393619,11.0468678827,12.0733558854
 C,0,1.58859572,17.5515771996,12.0519121268
 C,0,0.6856021754,10.9478601497,12.5132662648
 C,0,2.4148139423,16.3273420793,12.4841234442
 C,0,2.900911813,12.712792117,13.8304080629
 C,0,-0.2233725526,17.3349457427,13.8060121738
 C,0,2.9964319188,9.8955150887,12.6998082758
 C,0,2.1587407789,18.8507328525,12.6910496422
 C,0,4.465083834,9.9806796848,12.2505389091
 C,0,1.3408949122,20.0801153006,12.259629474
 C,0,2.4018470028,8.5208154164,12.340268808
 C,0,3.6440097759,19.0352940912,12.3257940734
 O,0,2.8860507484,15.6501359087,11.4066198713
 C,0,3.8007743787,14.5215895356,11.6483286026
 C,0,3.0164995826,13.2159060661,11.3500587092
 C,0,-0.7186749534,17.2093974203,11.3237984603
 C,0,4.9835792767,14.6617699438,10.6666456288
 C,0,-2.9587049737,18.1825038453,10.6463993624
 C,0,5.9843918357,13.5089729422,10.8759796482
 C,0,-2.4609585793,19.6259498751,10.8573242008
 C,0,5.6821832888,16.0240637721,10.8106321542
 C,0,-4.4872976025,18.1065827248,10.7945548867
 H,0,1.6230293223,17.6190004452,10.9529066305
 H,0,2.0936894156,18.7422833742,13.7911979518
 H,0,4.2691125854,18.2042372941,12.6954982579
 H,0,3.7787419976,19.10988398,11.2306501155
 H,0,4.032537372,19.9665307676,12.7745131815
 H,0,1.7304944525,20.9896897555,12.7504665758
 H,0,1.4053059988,20.2334597188,11.1664425703
 H,0,0.2741676634,19.9840725846,12.5243497609
 H,0,4.1520825142,14.5928783801,12.689403507
 H,0,4.5558301134,14.5729769557,9.6512636279
 H,0,6.5167752678,16.0980795707,10.0908244398
 H,0,4.9905834544,16.8587563276,10.6128494337
 H,0,6.1049661582,16.1551925953,11.8252607547
 H,0,6.396078312,13.5144928582,11.9034079196
 H,0,5.5221221837,12.5253126398,10.6894325715
 H,0,6.8333492573,13.6160991729,10.1782976453
 H,0,3.8959946216,12.38830621,14.1914279033
 H,0,2.7873179012,13.7941027556,13.9950641633
 H,0,2.1249933861,12.1952732748,14.4148233987
 H,0,2.1912936948,10.9893820352,10.9738871102
 H,0,2.9488187214,10.0047149348,13.8007787619
 H,0,3.0199554252,7.7150568549,12.7741507752
 H,0,1.3767017978,8.3956319324,12.7293687802
 H,0,2.3775258159,8.3710131124,11.2448164127
 H,0,4.5502983414,9.8517304049,11.1554819773
 H,0,4.9243880437,10.948660612,12.5132285495
 H,0,5.0586278433,9.1825592737,12.7307840881
 H,0,-1.6861136701,10.3072175243,12.7385043303
 H,0,-1.8860550415,9.8787847895,9.7099806704
 H,0,-0.143218471,8.3810650571,10.7458451961
 H,0,-1.3351344042,7.8030397787,11.9500483574
 H,0,-1.5593946327,7.4342482259,10.2196344936
 H,0,-3.7546625115,8.8902245762,11.9705360236
 H,0,-4.1536635928,10.1079148127,10.7152625956
 H,0,-3.8679077396,8.4109066202,10.2576057561
 H,0,-1.687460704,11.924861059,14.0055801768
 H,0,-2.7510988983,13.3015093477,14.3895082102
 H,0,-3.4602038929,11.6641197074,14.1982106731
 H,0,-6.182725252,14.9022421658,11.1651205896
 H,0,-7.0748541128,14.7178833598,12.6990640839
 H,0,-5.6648335116,15.8010281606,12.624255284
 H,0,-5.2159364808,11.4477111304,12.5250413242
 H,0,-6.8148429453,12.2145159781,12.7192779189
 H,0,-5.9774719856,12.284901784,11.1444589572
 H,0,-5.0601310949,13.6635454917,13.7605848065
 H,0,-3.8128850839,13.7751636347,10.9379719276
 H,0,-2.4769834201,17.4951221917,12.6665929373
 H,0,-2.6714653214,17.8583815258,9.6293390024
 H,0,-4.8092181282,18.3956298276,11.8134699357
 H,0,-4.9698174559,18.8008580886,10.083823004
 H,0,-4.8664740639,17.0934110106,10.5858606259
 H,0,-1.3773555613,19.7187708967,10.6740848016
 H,0,-2.9763312794,20.3084764378,10.1589658176
 H,0,-2.6749669088,19.9784438303,11.884532721
 H,0,0.6141951002,16.9166461895,14.384952298
 H,0,-0.4382788956,18.3554365948,14.1776338879
 H,0,-1.103144256,16.694925065,13.9660794642
 Recover connectivity data from disk.

 GradGradGradGradGradGradGradGradGradGradGradGradGradGradGradGradGradGrad
 Berny optimization.
 Initialization pass.
                           ----------------------------
                           !    Initial Parameters    !
                           ! (Angstroms and Degrees)  !
 --------------------------                            --------------------------
 ! Name  Definition              Value          Derivative Info.                !
 --------------------------------------------------------------------------------
 ! R1    R(1,2)                  1.4813         estimate D2E/DX2                !
 ! R2    R(1,5)                  1.4722         estimate D2E/DX2                !
 ! R3    R(1,11)                 1.3845         estimate D2E/DX2                !
 ! R4    R(2,3)                  1.5393         estimate D2E/DX2                !
 ! R5    R(2,6)                  1.5561         estimate D2E/DX2                !
 ! R6    R(2,91)                 1.1014         estimate D2E/DX2                !
 ! R7    R(3,4)                  1.2308         estimate D2E/DX2                !
 ! R8    R(3,9)                  1.3572         estimate D2E/DX2                !
 ! R9    R(5,81)                 1.0997         estimate D2E/DX2                !
 ! R10   R(5,82)                 1.1007         estimate D2E/DX2                !
 ! R11   R(5,83)                 1.1072         estimate D2E/DX2                !
 ! R12   R(6,7)                  1.5386         estimate D2E/DX2                !
 ! R13   R(6,8)                  1.5406         estimate D2E/DX2                !
 ! R14   R(6,90)                 1.1074         estimate D2E/DX2                !
 ! R15   R(7,87)                 1.1033         estimate D2E/DX2                !
 ! R16   R(7,88)                 1.1045         estimate D2E/DX2                !
 ! R17   R(7,89)                 1.1058         estimate D2E/DX2                !
 ! R18   R(8,84)                 1.106          estimate D2E/DX2                !
 ! R19   R(8,85)                 1.1043         estimate D2E/DX2                !
 ! R20   R(8,86)                 1.1036         estimate D2E/DX2                !
 ! R21   R(9,16)                 1.4734         estimate D2E/DX2                !
 ! R22   R(10,11)                1.5526         estimate D2E/DX2                !
 ! R23   R(10,13)                1.5432         estimate D2E/DX2                !
 ! R24   R(10,17)                1.4736         estimate D2E/DX2                !
 ! R25   R(10,73)                1.1011         estimate D2E/DX2                !
 ! R26   R(11,12)                1.2397         estimate D2E/DX2                !
 ! R27   R(13,14)                1.541          estimate D2E/DX2                !
 ! R28   R(13,15)                1.5375         estimate D2E/DX2                !
 ! R29   R(13,74)                1.1055         estimate D2E/DX2                !
 ! R30   R(14,78)                1.1069         estimate D2E/DX2                !
 ! R31   R(14,79)                1.1028         estimate D2E/DX2                !
 ! R32   R(14,80)                1.1042         estimate D2E/DX2                !
 ! R33   R(15,75)                1.1016         estimate D2E/DX2                !
 ! R34   R(15,76)                1.107          estimate D2E/DX2                !
 ! R35   R(15,77)                1.1045         estimate D2E/DX2                !
 ! R36   R(16,39)                1.5524         estimate D2E/DX2                !
 ! R37   R(16,41)                1.5433         estimate D2E/DX2                !
 ! R38   R(16,92)                1.1009         estimate D2E/DX2                !
 ! R39   R(17,26)                1.3575         estimate D2E/DX2                !
 ! R40   R(18,39)                1.2395         estimate D2E/DX2                !
 ! R41   R(19,38)                1.2395         estimate D2E/DX2                !
 ! R42   R(20,27)                1.2307         estimate D2E/DX2                !
 ! R43   R(21,26)                1.2306         estimate D2E/DX2                !
 ! R44   R(22,24)                1.4812         estimate D2E/DX2                !
 ! R45   R(22,28)                1.472          estimate D2E/DX2                !
 ! R46   R(22,38)                1.3845         estimate D2E/DX2                !
 ! R47   R(23,25)                1.4814         estimate D2E/DX2                !
 ! R48   R(23,29)                1.472          estimate D2E/DX2                !
 ! R49   R(23,39)                1.3845         estimate D2E/DX2                !
 ! R50   R(24,26)                1.5393         estimate D2E/DX2                !
 ! R51   R(24,30)                1.5563         estimate D2E/DX2                !
 ! R52   R(24,65)                1.1015         estimate D2E/DX2                !
 ! R53   R(25,27)                1.5389         estimate D2E/DX2                !
 ! R54   R(25,31)                1.5561         estimate D2E/DX2                !
 ! R55   R(25,46)                1.1016         estimate D2E/DX2                !
 ! R56   R(27,36)                1.3571         estimate D2E/DX2                !
 ! R57   R(28,62)                1.1072         estimate D2E/DX2                !
 ! R58   R(28,63)                1.0997         estimate D2E/DX2                !
 ! R59   R(28,64)                1.1006         estimate D2E/DX2                !
 ! R60   R(29,100)               1.1008         estimate D2E/DX2                !
 ! R61   R(29,101)               1.1071         estimate D2E/DX2                !
 ! R62   R(29,102)               1.0997         estimate D2E/DX2                !
 ! R63   R(30,32)                1.5382         estimate D2E/DX2                !
 ! R64   R(30,34)                1.5403         estimate D2E/DX2                !
 ! R65   R(30,66)                1.1074         estimate D2E/DX2                !
 ! R66   R(31,33)                1.5383         estimate D2E/DX2                !
 ! R67   R(31,35)                1.5406         estimate D2E/DX2                !
 ! R68   R(31,47)                1.1074         estimate D2E/DX2                !
 ! R69   R(32,70)                1.1059         estimate D2E/DX2                !
 ! R70   R(32,71)                1.1032         estimate D2E/DX2                !
 ! R71   R(32,72)                1.1045         estimate D2E/DX2                !
 ! R72   R(33,51)                1.1046         estimate D2E/DX2                !
 ! R73   R(33,52)                1.1058         estimate D2E/DX2                !
 ! R74   R(33,53)                1.1033         estimate D2E/DX2                !
 ! R75   R(34,67)                1.1043         estimate D2E/DX2                !
 ! R76   R(34,68)                1.1036         estimate D2E/DX2                !
 ! R77   R(34,69)                1.1059         estimate D2E/DX2                !
 ! R78   R(35,48)                1.1037         estimate D2E/DX2                !
 ! R79   R(35,49)                1.1059         estimate D2E/DX2                !
 ! R80   R(35,50)                1.1043         estimate D2E/DX2                !
 ! R81   R(36,37)                1.4727         estimate D2E/DX2                !
 ! R82   R(37,38)                1.5521         estimate D2E/DX2                !
 ! R83   R(37,40)                1.5435         estimate D2E/DX2                !
 ! R84   R(37,54)                1.1011         estimate D2E/DX2                !
 ! R85   R(40,42)                1.5409         estimate D2E/DX2                !
 ! R86   R(40,44)                1.5377         estimate D2E/DX2                !
 ! R87   R(40,55)                1.1054         estimate D2E/DX2                !
 ! R88   R(41,43)                1.5414         estimate D2E/DX2                !
 ! R89   R(41,45)                1.5376         estimate D2E/DX2                !
 ! R90   R(41,93)                1.1054         estimate D2E/DX2                !
 ! R91   R(42,59)                1.1069         estimate D2E/DX2                !
 ! R92   R(42,60)                1.1028         estimate D2E/DX2                !
 ! R93   R(42,61)                1.1041         estimate D2E/DX2                !
 ! R94   R(43,97)                1.1029         estimate D2E/DX2                !
 ! R95   R(43,98)                1.1042         estimate D2E/DX2                !
 ! R96   R(43,99)                1.1069         estimate D2E/DX2                !
 ! R97   R(44,56)                1.1046         estimate D2E/DX2                !
 ! R98   R(44,57)                1.1019         estimate D2E/DX2                !
 ! R99   R(44,58)                1.107          estimate D2E/DX2                !
 ! R100  R(45,94)                1.107          estimate D2E/DX2                !
 ! R101  R(45,95)                1.1045         estimate D2E/DX2                !
 ! R102  R(45,96)                1.1017         estimate D2E/DX2                !
 ! A1    A(2,1,5)              117.9606         estimate D2E/DX2                !
 ! A2    A(2,1,11)             116.939          estimate D2E/DX2                !
 ! A3    A(5,1,11)             124.9791         estimate D2E/DX2                !
 ! A4    A(1,2,3)              109.8131         estimate D2E/DX2                !
 ! A5    A(1,2,6)              112.4781         estimate D2E/DX2                !
 ! A6    A(1,2,91)             105.2442         estimate D2E/DX2                !
 ! A7    A(3,2,6)              110.4683         estimate D2E/DX2                !
 ! A8    A(3,2,91)             108.3193         estimate D2E/DX2                !
 ! A9    A(6,2,91)             110.3219         estimate D2E/DX2                !
 ! A10   A(2,3,4)              124.0116         estimate D2E/DX2                !
 ! A11   A(2,3,9)              111.2257         estimate D2E/DX2                !
 ! A12   A(4,3,9)              124.7513         estimate D2E/DX2                !
 ! A13   A(1,5,81)             110.4967         estimate D2E/DX2                !
 ! A14   A(1,5,82)             107.9526         estimate D2E/DX2                !
 ! A15   A(1,5,83)             111.9291         estimate D2E/DX2                !
 ! A16   A(81,5,82)            108.1232         estimate D2E/DX2                !
 ! A17   A(81,5,83)            109.4908         estimate D2E/DX2                !
 ! A18   A(82,5,83)            108.7457         estimate D2E/DX2                !
 ! A19   A(2,6,7)              111.026          estimate D2E/DX2                !
 ! A20   A(2,6,8)              110.8461         estimate D2E/DX2                !
 ! A21   A(2,6,90)             107.694          estimate D2E/DX2                !
 ! A22   A(7,6,8)              110.4488         estimate D2E/DX2                !
 ! A23   A(7,6,90)             108.9819         estimate D2E/DX2                !
 ! A24   A(8,6,90)             107.7271         estimate D2E/DX2                !
 ! A25   A(6,7,87)             112.211          estimate D2E/DX2                !
 ! A26   A(6,7,88)             110.2144         estimate D2E/DX2                !
 ! A27   A(6,7,89)             110.9117         estimate D2E/DX2                !
 ! A28   A(87,7,88)            107.7986         estimate D2E/DX2                !
 ! A29   A(87,7,89)            107.8217         estimate D2E/DX2                !
 ! A30   A(88,7,89)            107.7151         estimate D2E/DX2                !
 ! A31   A(6,8,84)             111.085          estimate D2E/DX2                !
 ! A32   A(6,8,85)             110.1299         estimate D2E/DX2                !
 ! A33   A(6,8,86)             112.146          estimate D2E/DX2                !
 ! A34   A(84,8,85)            107.6425         estimate D2E/DX2                !
 ! A35   A(84,8,86)            108.2409         estimate D2E/DX2                !
 ! A36   A(85,8,86)            107.419          estimate D2E/DX2                !
 ! A37   A(3,9,16)             117.8184         estimate D2E/DX2                !
 ! A38   A(11,10,13)           109.9631         estimate D2E/DX2                !
 ! A39   A(11,10,17)           107.4375         estimate D2E/DX2                !
 ! A40   A(11,10,73)           113.3142         estimate D2E/DX2                !
 ! A41   A(13,10,17)           107.5076         estimate D2E/DX2                !
 ! A42   A(13,10,73)           110.6675         estimate D2E/DX2                !
 ! A43   A(17,10,73)           107.7082         estimate D2E/DX2                !
 ! A44   A(1,11,10)            118.3042         estimate D2E/DX2                !
 ! A45   A(1,11,12)            122.6758         estimate D2E/DX2                !
 ! A46   A(10,11,12)           118.9609         estimate D2E/DX2                !
 ! A47   A(10,13,14)           110.1186         estimate D2E/DX2                !
 ! A48   A(10,13,15)           111.752          estimate D2E/DX2                !
 ! A49   A(10,13,74)           106.2206         estimate D2E/DX2                !
 ! A50   A(14,13,15)           110.7514         estimate D2E/DX2                !
 ! A51   A(14,13,74)           108.4187         estimate D2E/DX2                !
 ! A52   A(15,13,74)           109.4234         estimate D2E/DX2                !
 ! A53   A(13,14,78)           111.3222         estimate D2E/DX2                !
 ! A54   A(13,14,79)           111.8277         estimate D2E/DX2                !
 ! A55   A(13,14,80)           109.9694         estimate D2E/DX2                !
 ! A56   A(78,14,79)           108.5387         estimate D2E/DX2                !
 ! A57   A(78,14,80)           107.4321         estimate D2E/DX2                !
 ! A58   A(79,14,80)           107.5789         estimate D2E/DX2                !
 ! A59   A(13,15,75)           111.6895         estimate D2E/DX2                !
 ! A60   A(13,15,76)           111.405          estimate D2E/DX2                !
 ! A61   A(13,15,77)           109.9604         estimate D2E/DX2                !
 ! A62   A(75,15,76)           108.2978         estimate D2E/DX2                !
 ! A63   A(75,15,77)           107.8339         estimate D2E/DX2                !
 ! A64   A(76,15,77)           107.4936         estimate D2E/DX2                !
 ! A65   A(9,16,39)            107.4799         estimate D2E/DX2                !
 ! A66   A(9,16,41)            107.7271         estimate D2E/DX2                !
 ! A67   A(9,16,92)            107.6147         estimate D2E/DX2                !
 ! A68   A(39,16,41)           109.9141         estimate D2E/DX2                !
 ! A69   A(39,16,92)           113.3448         estimate D2E/DX2                !
 ! A70   A(41,16,92)           110.5347         estimate D2E/DX2                !
 ! A71   A(10,17,26)           117.9947         estimate D2E/DX2                !
 ! A72   A(24,22,28)           118.1107         estimate D2E/DX2                !
 ! A73   A(24,22,38)           116.8911         estimate D2E/DX2                !
 ! A74   A(28,22,38)           124.9487         estimate D2E/DX2                !
 ! A75   A(25,23,29)           117.968          estimate D2E/DX2                !
 ! A76   A(25,23,39)           116.9521         estimate D2E/DX2                !
 ! A77   A(29,23,39)           125.0152         estimate D2E/DX2                !
 ! A78   A(22,24,26)           109.9154         estimate D2E/DX2                !
 ! A79   A(22,24,30)           112.3897         estimate D2E/DX2                !
 ! A80   A(22,24,65)           105.2408         estimate D2E/DX2                !
 ! A81   A(26,24,30)           110.6634         estimate D2E/DX2                !
 ! A82   A(26,24,65)           108.1426         estimate D2E/DX2                !
 ! A83   A(30,24,65)           110.2766         estimate D2E/DX2                !
 ! A84   A(23,25,27)           109.7755         estimate D2E/DX2                !
 ! A85   A(23,25,31)           112.4645         estimate D2E/DX2                !
 ! A86   A(23,25,46)           105.2727         estimate D2E/DX2                !
 ! A87   A(27,25,31)           110.6162         estimate D2E/DX2                !
 ! A88   A(27,25,46)           108.186          estimate D2E/DX2                !
 ! A89   A(31,25,46)           110.317          estimate D2E/DX2                !
 ! A90   A(17,26,21)           124.7927         estimate D2E/DX2                !
 ! A91   A(17,26,24)           111.06           estimate D2E/DX2                !
 ! A92   A(21,26,24)           124.1326         estimate D2E/DX2                !
 ! A93   A(20,27,25)           124.0529         estimate D2E/DX2                !
 ! A94   A(20,27,36)           124.8101         estimate D2E/DX2                !
 ! A95   A(25,27,36)           111.1257         estimate D2E/DX2                !
 ! A96   A(22,28,62)           112.0051         estimate D2E/DX2                !
 ! A97   A(22,28,63)           110.4257         estimate D2E/DX2                !
 ! A98   A(22,28,64)           108.0202         estimate D2E/DX2                !
 ! A99   A(62,28,63)           109.4027         estimate D2E/DX2                !
 ! A100  A(62,28,64)           108.8238         estimate D2E/DX2                !
 ! A101  A(63,28,64)           108.0607         estimate D2E/DX2                !
 ! A102  A(23,29,100)          108.0056         estimate D2E/DX2                !
 ! A103  A(23,29,101)          111.9666         estimate D2E/DX2                !
 ! A104  A(23,29,102)          110.4865         estimate D2E/DX2                !
 ! A105  A(100,29,101)         108.7499         estimate D2E/DX2                !
 ! A106  A(100,29,102)         108.1208         estimate D2E/DX2                !
 ! A107  A(101,29,102)         109.4098         estimate D2E/DX2                !
 ! A108  A(24,30,32)           110.8701         estimate D2E/DX2                !
 ! A109  A(24,30,34)           110.9878         estimate D2E/DX2                !
 ! A110  A(24,30,66)           107.7013         estimate D2E/DX2                !
 ! A111  A(32,30,34)           110.475          estimate D2E/DX2                !
 ! A112  A(32,30,66)           109.0246         estimate D2E/DX2                !
 ! A113  A(34,30,66)           107.6663         estimate D2E/DX2                !
 ! A114  A(25,31,33)           110.9308         estimate D2E/DX2                !
 ! A115  A(25,31,35)           110.8471         estimate D2E/DX2                !
 ! A116  A(25,31,47)           107.744          estimate D2E/DX2                !
 ! A117  A(33,31,35)           110.5072         estimate D2E/DX2                !
 ! A118  A(33,31,47)           109.0051         estimate D2E/DX2                !
 ! A119  A(35,31,47)           107.6918         estimate D2E/DX2                !
 ! A120  A(30,32,70)           110.8746         estimate D2E/DX2                !
 ! A121  A(30,32,71)           112.121          estimate D2E/DX2                !
 ! A122  A(30,32,72)           110.2481         estimate D2E/DX2                !
 ! A123  A(70,32,71)           107.8195         estimate D2E/DX2                !
 ! A124  A(70,32,72)           107.7507         estimate D2E/DX2                !
 ! A125  A(71,32,72)           107.8653         estimate D2E/DX2                !
 ! A126  A(31,33,51)           110.2401         estimate D2E/DX2                !
 ! A127  A(31,33,52)           110.9235         estimate D2E/DX2                !
 ! A128  A(31,33,53)           112.1592         estimate D2E/DX2                !
 ! A129  A(51,33,52)           107.7327         estimate D2E/DX2                !
 ! A130  A(51,33,53)           107.8244         estimate D2E/DX2                !
 ! A131  A(52,33,53)           107.7945         estimate D2E/DX2                !
 ! A132  A(30,34,67)           110.085          estimate D2E/DX2                !
 ! A133  A(30,34,68)           112.1789         estimate D2E/DX2                !
 ! A134  A(30,34,69)           111.1364         estimate D2E/DX2                !
 ! A135  A(67,34,68)           107.3752         estimate D2E/DX2                !
 ! A136  A(67,34,69)           107.6168         estimate D2E/DX2                !
 ! A137  A(68,34,69)           108.2665         estimate D2E/DX2                !
 ! A138  A(31,35,48)           112.1117         estimate D2E/DX2                !
 ! A139  A(31,35,49)           111.119          estimate D2E/DX2                !
 ! A140  A(31,35,50)           110.1131         estimate D2E/DX2                !
 ! A141  A(48,35,49)           108.2701         estimate D2E/DX2                !
 ! A142  A(48,35,50)           107.4334         estimate D2E/DX2                !
 ! A143  A(49,35,50)           107.616          estimate D2E/DX2                !
 ! A144  A(27,36,37)           117.8899         estimate D2E/DX2                !
 ! A145  A(36,37,38)           107.4139         estimate D2E/DX2                !
 ! A146  A(36,37,40)           107.5776         estimate D2E/DX2                !
 ! A147  A(36,37,54)           107.6831         estimate D2E/DX2                !
 ! A148  A(38,37,40)           109.9626         estimate D2E/DX2                !
 ! A149  A(38,37,54)           113.416          estimate D2E/DX2                !
 ! A150  A(40,37,54)           110.5472         estimate D2E/DX2                !
 ! A151  A(19,38,22)           122.6783         estimate D2E/DX2                !
 ! A152  A(19,38,37)           118.9076         estimate D2E/DX2                !
 ! A153  A(22,38,37)           118.3452         estimate D2E/DX2                !
 ! A154  A(16,39,18)           118.9708         estimate D2E/DX2                !
 ! A155  A(16,39,23)           118.2791         estimate D2E/DX2                !
 ! A156  A(18,39,23)           122.6795         estimate D2E/DX2                !
 ! A157  A(37,40,42)           110.0824         estimate D2E/DX2                !
 ! A158  A(37,40,44)           111.6569         estimate D2E/DX2                !
 ! A159  A(37,40,55)           106.2837         estimate D2E/DX2                !
 ! A160  A(42,40,44)           110.7925         estimate D2E/DX2                !
 ! A161  A(42,40,55)           108.4231         estimate D2E/DX2                !
 ! A162  A(44,40,55)           109.4498         estimate D2E/DX2                !
 ! A163  A(16,41,43)           110.0041         estimate D2E/DX2                !
 ! A164  A(16,41,45)           111.741          estimate D2E/DX2                !
 ! A165  A(16,41,93)           106.3335         estimate D2E/DX2                !
 ! A166  A(43,41,45)           110.7373         estimate D2E/DX2                !
 ! A167  A(43,41,93)           108.4561         estimate D2E/DX2                !
 ! A168  A(45,41,93)           109.42           estimate D2E/DX2                !
 ! A169  A(40,42,59)           111.3428         estimate D2E/DX2                !
 ! A170  A(40,42,60)           111.8443         estimate D2E/DX2                !
 ! A171  A(40,42,61)           109.9369         estimate D2E/DX2                !
 ! A172  A(59,42,60)           108.5051         estimate D2E/DX2                !
 ! A173  A(59,42,61)           107.463          estimate D2E/DX2                !
 ! A174  A(60,42,61)           107.5768         estimate D2E/DX2                !
 ! A175  A(41,43,97)           111.9228         estimate D2E/DX2                !
 ! A176  A(41,43,98)           109.9743         estimate D2E/DX2                !
 ! A177  A(41,43,99)           111.2712         estimate D2E/DX2                !
 ! A178  A(97,43,98)           107.5468         estimate D2E/DX2                !
 ! A179  A(97,43,99)           108.5022         estimate D2E/DX2                !
 ! A180  A(98,43,99)           107.449          estimate D2E/DX2                !
 ! A181  A(40,44,56)           109.9745         estimate D2E/DX2                !
 ! A182  A(40,44,57)           111.6624         estimate D2E/DX2                !
 ! A183  A(40,44,58)           111.363          estimate D2E/DX2                !
 ! A184  A(56,44,57)           107.8487         estimate D2E/DX2                !
 ! A185  A(56,44,58)           107.5042         estimate D2E/DX2                !
 ! A186  A(57,44,58)           108.3309         estimate D2E/DX2                !
 ! A187  A(41,45,94)           111.4015         estimate D2E/DX2                !
 ! A188  A(41,45,95)           109.9531         estimate D2E/DX2                !
 ! A189  A(41,45,96)           111.6719         estimate D2E/DX2                !
 ! A190  A(94,45,95)           107.5245         estimate D2E/DX2                !
 ! A191  A(94,45,96)           108.3242         estimate D2E/DX2                !
 ! A192  A(95,45,96)           107.8065         estimate D2E/DX2                !
 ! D1    D(5,1,2,3)             69.1717         estimate D2E/DX2                !
 ! D2    D(5,1,2,6)            -54.2862         estimate D2E/DX2                !
 ! D3    D(5,1,2,91)          -174.4396         estimate D2E/DX2                !
 ! D4    D(11,1,2,3)          -114.6307         estimate D2E/DX2                !
 ! D5    D(11,1,2,6)           121.9114         estimate D2E/DX2                !
 ! D6    D(11,1,2,91)            1.758          estimate D2E/DX2                !
 ! D7    D(2,1,5,81)          -150.5477         estimate D2E/DX2                !
 ! D8    D(2,1,5,82)           -32.5004         estimate D2E/DX2                !
 ! D9    D(2,1,5,83)            87.1433         estimate D2E/DX2                !
 ! D10   D(11,1,5,81)           33.5899         estimate D2E/DX2                !
 ! D11   D(11,1,5,82)          151.6372         estimate D2E/DX2                !
 ! D12   D(11,1,5,83)          -88.719          estimate D2E/DX2                !
 ! D13   D(2,1,11,10)         -170.0333         estimate D2E/DX2                !
 ! D14   D(2,1,11,12)            7.1383         estimate D2E/DX2                !
 ! D15   D(5,1,11,10)            5.8673         estimate D2E/DX2                !
 ! D16   D(5,1,11,12)         -176.9611         estimate D2E/DX2                !
 ! D17   D(1,2,3,4)            -69.1501         estimate D2E/DX2                !
 ! D18   D(1,2,3,9)            112.0318         estimate D2E/DX2                !
 ! D19   D(6,2,3,4)             55.478          estimate D2E/DX2                !
 ! D20   D(6,2,3,9)           -123.3401         estimate D2E/DX2                !
 ! D21   D(91,2,3,4)           176.4134         estimate D2E/DX2                !
 ! D22   D(91,2,3,9)            -2.4047         estimate D2E/DX2                !
 ! D23   D(1,2,6,7)            -56.9684         estimate D2E/DX2                !
 ! D24   D(1,2,6,8)            179.8785         estimate D2E/DX2                !
 ! D25   D(1,2,6,90)            62.2673         estimate D2E/DX2                !
 ! D26   D(3,2,6,7)            179.9398         estimate D2E/DX2                !
 ! D27   D(3,2,6,8)             56.7868         estimate D2E/DX2                !
 ! D28   D(3,2,6,90)           -60.8244         estimate D2E/DX2                !
 ! D29   D(91,2,6,7)            60.2044         estimate D2E/DX2                !
 ! D30   D(91,2,6,8)           -62.9486         estimate D2E/DX2                !
 ! D31   D(91,2,6,90)          179.4401         estimate D2E/DX2                !
 ! D32   D(2,3,9,16)           174.5204         estimate D2E/DX2                !
 ! D33   D(4,3,9,16)            -4.2872         estimate D2E/DX2                !
 ! D34   D(2,6,7,87)            57.6157         estimate D2E/DX2                !
 ! D35   D(2,6,7,88)           177.7607         estimate D2E/DX2                !
 ! D36   D(2,6,7,89)           -63.0424         estimate D2E/DX2                !
 ! D37   D(8,6,7,87)          -179.0031         estimate D2E/DX2                !
 ! D38   D(8,6,7,88)           -58.8581         estimate D2E/DX2                !
 ! D39   D(8,6,7,89)            60.3388         estimate D2E/DX2                !
 ! D40   D(90,6,7,87)          -60.845          estimate D2E/DX2                !
 ! D41   D(90,6,7,88)           59.2999         estimate D2E/DX2                !
 ! D42   D(90,6,7,89)          178.4969         estimate D2E/DX2                !
 ! D43   D(2,6,8,84)            60.0901         estimate D2E/DX2                !
 ! D44   D(2,6,8,85)           179.2523         estimate D2E/DX2                !
 ! D45   D(2,6,8,86)           -61.183          estimate D2E/DX2                !
 ! D46   D(7,6,8,84)           -63.3954         estimate D2E/DX2                !
 ! D47   D(7,6,8,85)            55.7669         estimate D2E/DX2                !
 ! D48   D(7,6,8,86)           175.3316         estimate D2E/DX2                !
 ! D49   D(90,6,8,84)          177.6811         estimate D2E/DX2                !
 ! D50   D(90,6,8,85)          -63.1567         estimate D2E/DX2                !
 ! D51   D(90,6,8,86)           56.4081         estimate D2E/DX2                !
 ! D52   D(3,9,16,39)          108.196          estimate D2E/DX2                !
 ! D53   D(3,9,16,41)         -133.4076         estimate D2E/DX2                !
 ! D54   D(3,9,16,92)          -14.207          estimate D2E/DX2                !
 ! D55   D(13,10,11,1)         133.5061         estimate D2E/DX2                !
 ! D56   D(13,10,11,12)        -43.7729         estimate D2E/DX2                !
 ! D57   D(17,10,11,1)        -109.7774         estimate D2E/DX2                !
 ! D58   D(17,10,11,12)         72.9435         estimate D2E/DX2                !
 ! D59   D(73,10,11,1)           9.0735         estimate D2E/DX2                !
 ! D60   D(73,10,11,12)       -168.2056         estimate D2E/DX2                !
 ! D61   D(11,10,13,14)        -62.7141         estimate D2E/DX2                !
 ! D62   D(11,10,13,15)        173.7523         estimate D2E/DX2                !
 ! D63   D(11,10,13,74)         54.4801         estimate D2E/DX2                !
 ! D64   D(17,10,13,14)       -179.3867         estimate D2E/DX2                !
 ! D65   D(17,10,13,15)         57.0797         estimate D2E/DX2                !
 ! D66   D(17,10,13,74)        -62.1925         estimate D2E/DX2                !
 ! D67   D(73,10,13,14)         63.2344         estimate D2E/DX2                !
 ! D68   D(73,10,13,15)        -60.2992         estimate D2E/DX2                !
 ! D69   D(73,10,13,74)       -179.5714         estimate D2E/DX2                !
 ! D70   D(11,10,17,26)        107.7127         estimate D2E/DX2                !
 ! D71   D(13,10,17,26)       -133.9719         estimate D2E/DX2                !
 ! D72   D(73,10,17,26)        -14.6829         estimate D2E/DX2                !
 ! D73   D(10,13,14,78)        -60.6918         estimate D2E/DX2                !
 ! D74   D(10,13,14,79)         60.9096         estimate D2E/DX2                !
 ! D75   D(10,13,14,80)       -179.6383         estimate D2E/DX2                !
 ! D76   D(15,13,14,78)         63.4226         estimate D2E/DX2                !
 ! D77   D(15,13,14,79)       -174.976          estimate D2E/DX2                !
 ! D78   D(15,13,14,80)        -55.5239         estimate D2E/DX2                !
 ! D79   D(74,13,14,78)       -176.5115         estimate D2E/DX2                !
 ! D80   D(74,13,14,79)        -54.9101         estimate D2E/DX2                !
 ! D81   D(74,13,14,80)         64.542          estimate D2E/DX2                !
 ! D82   D(10,13,15,75)        -59.2491         estimate D2E/DX2                !
 ! D83   D(10,13,15,76)         62.0041         estimate D2E/DX2                !
 ! D84   D(10,13,15,77)       -178.9262         estimate D2E/DX2                !
 ! D85   D(14,13,15,75)        177.5755         estimate D2E/DX2                !
 ! D86   D(14,13,15,76)        -61.1713         estimate D2E/DX2                !
 ! D87   D(14,13,15,77)         57.8984         estimate D2E/DX2                !
 ! D88   D(74,13,15,75)         58.1118         estimate D2E/DX2                !
 ! D89   D(74,13,15,76)        179.365          estimate D2E/DX2                !
 ! D90   D(74,13,15,77)        -61.5653         estimate D2E/DX2                !
 ! D91   D(9,16,39,18)          72.8317         estimate D2E/DX2                !
 ! D92   D(9,16,39,23)        -110.1419         estimate D2E/DX2                !
 ! D93   D(41,16,39,18)        -44.1439         estimate D2E/DX2                !
 ! D94   D(41,16,39,23)        132.8825         estimate D2E/DX2                !
 ! D95   D(92,16,39,18)       -168.387          estimate D2E/DX2                !
 ! D96   D(92,16,39,23)          8.6394         estimate D2E/DX2                !
 ! D97   D(9,16,41,43)         179.7554         estimate D2E/DX2                !
 ! D98   D(9,16,41,45)          56.33           estimate D2E/DX2                !
 ! D99   D(9,16,41,93)         -63.002          estimate D2E/DX2                !
 ! D100  D(39,16,41,43)        -63.4236         estimate D2E/DX2                !
 ! D101  D(39,16,41,45)        173.1511         estimate D2E/DX2                !
 ! D102  D(39,16,41,93)         53.819          estimate D2E/DX2                !
 ! D103  D(92,16,41,43)         62.4332         estimate D2E/DX2                !
 ! D104  D(92,16,41,45)        -60.9921         estimate D2E/DX2                !
 ! D105  D(92,16,41,93)        179.6758         estimate D2E/DX2                !
 ! D106  D(10,17,26,21)         -4.1107         estimate D2E/DX2                !
 ! D107  D(10,17,26,24)        174.5396         estimate D2E/DX2                !
 ! D108  D(28,22,24,26)         69.6329         estimate D2E/DX2                !
 ! D109  D(28,22,24,30)        -54.09           estimate D2E/DX2                !
 ! D110  D(28,22,24,65)       -174.1372         estimate D2E/DX2                !
 ! D111  D(38,22,24,26)       -112.797          estimate D2E/DX2                !
 ! D112  D(38,22,24,30)        123.4801         estimate D2E/DX2                !
 ! D113  D(38,22,24,65)          3.4329         estimate D2E/DX2                !
 ! D114  D(24,22,28,62)         87.158          estimate D2E/DX2                !
 ! D115  D(24,22,28,63)       -150.6439         estimate D2E/DX2                !
 ! D116  D(24,22,28,64)        -32.6721         estimate D2E/DX2                !
 ! D117  D(38,22,28,62)        -90.1979         estimate D2E/DX2                !
 ! D118  D(38,22,28,63)         32.0002         estimate D2E/DX2                !
 ! D119  D(38,22,28,64)        149.972          estimate D2E/DX2                !
 ! D120  D(24,22,38,19)          7.0996         estimate D2E/DX2                !
 ! D121  D(24,22,38,37)       -169.8458         estimate D2E/DX2                !
 ! D122  D(28,22,38,19)       -175.5154         estimate D2E/DX2                !
 ! D123  D(28,22,38,37)          7.5392         estimate D2E/DX2                !
 ! D124  D(29,23,25,27)         69.5749         estimate D2E/DX2                !
 ! D125  D(29,23,25,31)        -54.0369         estimate D2E/DX2                !
 ! D126  D(29,23,25,46)       -174.1949         estimate D2E/DX2                !
 ! D127  D(39,23,25,27)       -113.2002         estimate D2E/DX2                !
 ! D128  D(39,23,25,31)        123.188          estimate D2E/DX2                !
 ! D129  D(39,23,25,46)          3.03           estimate D2E/DX2                !
 ! D130  D(25,23,29,100)       -32.998          estimate D2E/DX2                !
 ! D131  D(25,23,29,101)        86.7079         estimate D2E/DX2                !
 ! D132  D(25,23,29,102)      -151.0683         estimate D2E/DX2                !
 ! D133  D(39,23,29,100)       150.0226         estimate D2E/DX2                !
 ! D134  D(39,23,29,101)       -90.2715         estimate D2E/DX2                !
 ! D135  D(39,23,29,102)        31.9523         estimate D2E/DX2                !
 ! D136  D(25,23,39,16)       -169.6313         estimate D2E/DX2                !
 ! D137  D(25,23,39,18)          7.2778         estimate D2E/DX2                !
 ! D138  D(29,23,39,16)          7.3758         estimate D2E/DX2                !
 ! D139  D(29,23,39,18)       -175.715          estimate D2E/DX2                !
 ! D140  D(22,24,26,17)        113.2716         estimate D2E/DX2                !
 ! D141  D(22,24,26,21)        -68.0675         estimate D2E/DX2                !
 ! D142  D(30,24,26,17)       -122.0044         estimate D2E/DX2                !
 ! D143  D(30,24,26,21)         56.6565         estimate D2E/DX2                !
 ! D144  D(65,24,26,17)         -1.1181         estimate D2E/DX2                !
 ! D145  D(65,24,26,21)        177.5428         estimate D2E/DX2                !
 ! D146  D(22,24,30,32)        -57.3328         estimate D2E/DX2                !
 ! D147  D(22,24,30,34)        179.4905         estimate D2E/DX2                !
 ! D148  D(22,24,30,66)         61.8689         estimate D2E/DX2                !
 ! D149  D(26,24,30,32)        179.3619         estimate D2E/DX2                !
 ! D150  D(26,24,30,34)         56.1852         estimate D2E/DX2                !
 ! D151  D(26,24,30,66)        -61.4364         estimate D2E/DX2                !
 ! D152  D(65,24,30,32)         59.7507         estimate D2E/DX2                !
 ! D153  D(65,24,30,34)        -63.426          estimate D2E/DX2                !
 ! D154  D(65,24,30,66)        178.9525         estimate D2E/DX2                !
 ! D155  D(23,25,27,20)        -69.8915         estimate D2E/DX2                !
 ! D156  D(23,25,27,36)        111.2808         estimate D2E/DX2                !
 ! D157  D(31,25,27,20)         54.7959         estimate D2E/DX2                !
 ! D158  D(31,25,27,36)       -124.0318         estimate D2E/DX2                !
 ! D159  D(46,25,27,20)        175.7306         estimate D2E/DX2                !
 ! D160  D(46,25,27,36)         -3.097          estimate D2E/DX2                !
 ! D161  D(23,25,31,33)        -57.0587         estimate D2E/DX2                !
 ! D162  D(23,25,31,35)        179.7799         estimate D2E/DX2                !
 ! D163  D(23,25,31,47)         62.1809         estimate D2E/DX2                !
 ! D164  D(27,25,31,33)        179.7989         estimate D2E/DX2                !
 ! D165  D(27,25,31,35)         56.6375         estimate D2E/DX2                !
 ! D166  D(27,25,31,47)        -60.9615         estimate D2E/DX2                !
 ! D167  D(46,25,31,33)         60.138          estimate D2E/DX2                !
 ! D168  D(46,25,31,35)        -63.0234         estimate D2E/DX2                !
 ! D169  D(46,25,31,47)        179.3776         estimate D2E/DX2                !
 ! D170  D(20,27,36,37)         -4.3395         estimate D2E/DX2                !
 ! D171  D(25,27,36,37)        174.4775         estimate D2E/DX2                !
 ! D172  D(24,30,32,70)        -62.9007         estimate D2E/DX2                !
 ! D173  D(24,30,32,71)         57.6669         estimate D2E/DX2                !
 ! D174  D(24,30,32,72)        177.8599         estimate D2E/DX2                !
 ! D175  D(34,30,32,70)         60.5712         estimate D2E/DX2                !
 ! D176  D(34,30,32,71)       -178.8611         estimate D2E/DX2                !
 ! D177  D(34,30,32,72)        -58.6682         estimate D2E/DX2                !
 ! D178  D(66,30,32,70)        178.6965         estimate D2E/DX2                !
 ! D179  D(66,30,32,71)        -60.7359         estimate D2E/DX2                !
 ! D180  D(66,30,32,72)         59.4571         estimate D2E/DX2                !
 ! D181  D(24,30,34,67)        178.8224         estimate D2E/DX2                !
 ! D182  D(24,30,34,68)        -61.6769         estimate D2E/DX2                !
 ! D183  D(24,30,34,69)         59.6887         estimate D2E/DX2                !
 ! D184  D(32,30,34,67)         55.4187         estimate D2E/DX2                !
 ! D185  D(32,30,34,68)        174.9194         estimate D2E/DX2                !
 ! D186  D(32,30,34,69)        -63.7151         estimate D2E/DX2                !
 ! D187  D(66,30,34,67)        -63.5348         estimate D2E/DX2                !
 ! D188  D(66,30,34,68)         55.9659         estimate D2E/DX2                !
 ! D189  D(66,30,34,69)        177.3315         estimate D2E/DX2                !
 ! D190  D(25,31,33,51)        177.79           estimate D2E/DX2                !
 ! D191  D(25,31,33,52)        -62.967          estimate D2E/DX2                !
 ! D192  D(25,31,33,53)         57.629          estimate D2E/DX2                !
 ! D193  D(35,31,33,51)        -58.853          estimate D2E/DX2                !
 ! D194  D(35,31,33,52)         60.39           estimate D2E/DX2                !
 ! D195  D(35,31,33,53)       -179.014          estimate D2E/DX2                !
 ! D196  D(47,31,33,51)         59.3105         estimate D2E/DX2                !
 ! D197  D(47,31,33,52)        178.5536         estimate D2E/DX2                !
 ! D198  D(47,31,33,53)        -60.8505         estimate D2E/DX2                !
 ! D199  D(25,31,35,48)        -61.1689         estimate D2E/DX2                !
 ! D200  D(25,31,35,49)         60.1419         estimate D2E/DX2                !
 ! D201  D(25,31,35,50)        179.2819         estimate D2E/DX2                !
 ! D202  D(33,31,35,48)        175.4256         estimate D2E/DX2                !
 ! D203  D(33,31,35,49)        -63.2636         estimate D2E/DX2                !
 ! D204  D(33,31,35,50)         55.8763         estimate D2E/DX2                !
 ! D205  D(47,31,35,48)         56.4619         estimate D2E/DX2                !
 ! D206  D(47,31,35,49)        177.7728         estimate D2E/DX2                !
 ! D207  D(47,31,35,50)        -63.0873         estimate D2E/DX2                !
 ! D208  D(27,36,37,38)        107.7376         estimate D2E/DX2                !
 ! D209  D(27,36,37,40)       -133.9232         estimate D2E/DX2                !
 ! D210  D(27,36,37,54)        -14.7517         estimate D2E/DX2                !
 ! D211  D(36,37,38,19)         72.0423         estimate D2E/DX2                !
 ! D212  D(36,37,38,22)       -110.8947         estimate D2E/DX2                !
 ! D213  D(40,37,38,19)        -44.7439         estimate D2E/DX2                !
 ! D214  D(40,37,38,22)        132.3191         estimate D2E/DX2                !
 ! D215  D(54,37,38,19)       -169.0929         estimate D2E/DX2                !
 ! D216  D(54,37,38,22)          7.9701         estimate D2E/DX2                !
 ! D217  D(36,37,40,42)        179.7007         estimate D2E/DX2                !
 ! D218  D(36,37,40,44)         56.2072         estimate D2E/DX2                !
 ! D219  D(36,37,40,55)        -63.0831         estimate D2E/DX2                !
 ! D220  D(38,37,40,42)        -63.6155         estimate D2E/DX2                !
 ! D221  D(38,37,40,44)        172.8909         estimate D2E/DX2                !
 ! D222  D(38,37,40,55)         53.6007         estimate D2E/DX2                !
 ! D223  D(54,37,40,42)         62.377          estimate D2E/DX2                !
 ! D224  D(54,37,40,44)        -61.1165         estimate D2E/DX2                !
 ! D225  D(54,37,40,55)        179.5932         estimate D2E/DX2                !
 ! D226  D(37,40,42,59)        -60.5679         estimate D2E/DX2                !
 ! D227  D(37,40,42,60)         61.0166         estimate D2E/DX2                !
 ! D228  D(37,40,42,61)       -179.5449         estimate D2E/DX2                !
 ! D229  D(44,40,42,59)         63.4282         estimate D2E/DX2                !
 ! D230  D(44,40,42,60)       -174.9873         estimate D2E/DX2                !
 ! D231  D(44,40,42,61)        -55.5488         estimate D2E/DX2                !
 ! D232  D(55,40,42,59)       -176.4459         estimate D2E/DX2                !
 ! D233  D(55,40,42,60)        -54.8614         estimate D2E/DX2                !
 ! D234  D(55,40,42,61)         64.5772         estimate D2E/DX2                !
 ! D235  D(37,40,44,56)       -179.5061         estimate D2E/DX2                !
 ! D236  D(37,40,44,57)        -59.8186         estimate D2E/DX2                !
 ! D237  D(37,40,44,58)         61.4285         estimate D2E/DX2                !
 ! D238  D(42,40,44,56)         57.4034         estimate D2E/DX2                !
 ! D239  D(42,40,44,57)        177.0908         estimate D2E/DX2                !
 ! D240  D(42,40,44,58)        -61.662          estimate D2E/DX2                !
 ! D241  D(55,40,44,56)        -62.108          estimate D2E/DX2                !
 ! D242  D(55,40,44,57)         57.5794         estimate D2E/DX2                !
 ! D243  D(55,40,44,58)        178.8266         estimate D2E/DX2                !
 ! D244  D(16,41,43,97)         60.6711         estimate D2E/DX2                !
 ! D245  D(16,41,43,98)       -179.8526         estimate D2E/DX2                !
 ! D246  D(16,41,43,99)        -60.914          estimate D2E/DX2                !
 ! D247  D(45,41,43,97)       -175.319          estimate D2E/DX2                !
 ! D248  D(45,41,43,98)        -55.8427         estimate D2E/DX2                !
 ! D249  D(45,41,43,99)         63.0959         estimate D2E/DX2                !
 ! D250  D(93,41,43,97)        -55.2423         estimate D2E/DX2                !
 ! D251  D(93,41,43,98)         64.2341         estimate D2E/DX2                !
 ! D252  D(93,41,43,99)       -176.8274         estimate D2E/DX2                !
 ! D253  D(16,41,45,94)         60.7863         estimate D2E/DX2                !
 ! D254  D(16,41,45,95)        179.8876         estimate D2E/DX2                !
 ! D255  D(16,41,45,96)        -60.4859         estimate D2E/DX2                !
 ! D256  D(43,41,45,94)        -62.2233         estimate D2E/DX2                !
 ! D257  D(43,41,45,95)         56.878          estimate D2E/DX2                !
 ! D258  D(43,41,45,96)        176.5045         estimate D2E/DX2                !
 ! D259  D(93,41,45,94)        178.2778         estimate D2E/DX2                !
 ! D260  D(93,41,45,95)        -62.621          estimate D2E/DX2                !
 ! D261  D(93,41,45,96)         57.0055         estimate D2E/DX2                !
 --------------------------------------------------------------------------------
 Trust Radius=3.00D-01 FncErr=1.00D-07 GrdErr=1.00D-06
 Number of steps in this run=    565 maximum allowed number of steps=    612.
 GradGradGradGradGradGradGradGradGradGradGradGradGradGradGradGradGradGrad

 Symmetry turned off by external request.
 Stoichiometry    C33H57N3O9
 Framework group  C1[X(C33H57N3O9)]
 Deg. of freedom   300
 Full point group                 C1      NOp   1
                          Input orientation:                          
 ---------------------------------------------------------------------
 Center     Atomic      Atomic             Coordinates (Angstroms)
 Number     Number       Type             X           Y           Z
 ---------------------------------------------------------------------
      1          7           0       -2.859353   12.668750   12.398109
      2          6           0       -3.752739   13.794016   12.037549
      3          6           0       -3.111463   15.126692   12.464225
      4          8           0       -2.964309   15.476187   13.635195
      5          6           0       -2.682103   12.358398   13.826284
      6          6           0       -5.172025   13.649513   12.658970
      7          6           0       -5.825839   12.321511   12.239224
      8          6           0       -6.067474   14.839031   12.263238
      9          8           0       -2.757050   15.869236   11.384895
     10          6           0       -1.573221   10.617542   11.688064
     11          6           0       -2.318213   11.938120   11.354007
     12          8           0       -2.449396   12.269486   10.166672
     13          6           0       -2.037271    9.495437   10.735770
     14          6           0       -3.539969    9.218472   10.935458
     15          6           0       -1.216213    8.209748   10.927327
     16          6           0       -2.241474   17.228477   11.624715
     17          8           0       -0.138608   10.844826   11.439536
     18          8           0       -0.340364   17.138307   10.145579
     19          8           0        2.751615   12.931663   10.173025
     20          8           0        2.634042   16.022851   13.656197
     21          8           0        0.314868   10.937331   13.686604
     22          7           0        2.695672   12.385075   12.410108
     23          7           0        0.161295   17.336007   12.385126
     24          6           0        2.157339   11.046868   12.073356
     25          6           0        1.588596   17.551577   12.051912
     26          6           0        0.685602   10.947860   12.513266
     27          6           0        2.414814   16.327342   12.484123
     28          6           0        2.900912   12.712792   13.830408
     29          6           0       -0.223373   17.334946   13.806012
     30          6           0        2.996432    9.895515   12.699808
     31          6           0        2.158741   18.850733   12.691050
     32          6           0        4.465084    9.980680   12.250539
     33          6           0        1.340895   20.080115   12.259629
     34          6           0        2.401847    8.520815   12.340269
     35          6           0        3.644010   19.035294   12.325794
     36          8           0        2.886051   15.650136   11.406620
     37          6           0        3.800774   14.521590   11.648329
     38          6           0        3.016500   13.215906   11.350059
     39          6           0       -0.718675   17.209397   11.323798
     40          6           0        4.983579   14.661770   10.666646
     41          6           0       -2.958705   18.182504   10.646399
     42          6           0        5.984392   13.508973   10.875980
     43          6           0       -2.460959   19.625950   10.857324
     44          6           0        5.682183   16.024064   10.810632
     45          6           0       -4.487298   18.106583   10.794555
     46          1           0        1.623029   17.619000   10.952907
     47          1           0        2.093689   18.742283   13.791198
     48          1           0        4.269113   18.204237   12.695498
     49          1           0        3.778742   19.109884   11.230650
     50          1           0        4.032537   19.966531   12.774513
     51          1           0        1.730494   20.989690   12.750467
     52          1           0        1.405306   20.233460   11.166443
     53          1           0        0.274168   19.984073   12.524350
     54          1           0        4.152083   14.592878   12.689404
     55          1           0        4.555830   14.572977    9.651264
     56          1           0        6.516775   16.098080   10.090824
     57          1           0        4.990583   16.858756   10.612849
     58          1           0        6.104966   16.155193   11.825261
     59          1           0        6.396078   13.514493   11.903408
     60          1           0        5.522122   12.525313   10.689433
     61          1           0        6.833349   13.616099   10.178298
     62          1           0        3.895995   12.388306   14.191428
     63          1           0        2.787318   13.794103   13.995064
     64          1           0        2.124993   12.195273   14.414823
     65          1           0        2.191294   10.989382   10.973887
     66          1           0        2.948819   10.004715   13.800779
     67          1           0        3.019955    7.715057   12.774151
     68          1           0        1.376702    8.395632   12.729369
     69          1           0        2.377526    8.371013   11.244816
     70          1           0        4.550298    9.851730   11.155482
     71          1           0        4.924388   10.948661   12.513229
     72          1           0        5.058628    9.182559   12.730784
     73          1           0       -1.686114   10.307218   12.738504
     74          1           0       -1.886055    9.878785    9.709981
     75          1           0       -0.143218    8.381065   10.745845
     76          1           0       -1.335134    7.803040   11.950048
     77          1           0       -1.559395    7.434248   10.219634
     78          1           0       -3.754663    8.890225   11.970536
     79          1           0       -4.153664   10.107915   10.715263
     80          1           0       -3.867908    8.410907   10.257606
     81          1           0       -1.687461   11.924861   14.005580
     82          1           0       -2.751099   13.301509   14.389508
     83          1           0       -3.460204   11.664120   14.198211
     84          1           0       -6.182725   14.902242   11.165121
     85          1           0       -7.074854   14.717883   12.699064
     86          1           0       -5.664834   15.801028   12.624255
     87          1           0       -5.215936   11.447711   12.525041
     88          1           0       -6.814843   12.214516   12.719278
     89          1           0       -5.977472   12.284902   11.144459
     90          1           0       -5.060131   13.663545   13.760585
     91          1           0       -3.812885   13.775164   10.937972
     92          1           0       -2.476983   17.495122   12.666593
     93          1           0       -2.671465   17.858382    9.629339
     94          1           0       -4.809218   18.395630   11.813470
     95          1           0       -4.969817   18.800858   10.083823
     96          1           0       -4.866474   17.093411   10.585861
     97          1           0       -1.377356   19.718771   10.674085
     98          1           0       -2.976331   20.308476   10.158966
     99          1           0       -2.674967   19.978444   11.884533
    100          1           0        0.614195   16.916646   14.384952
    101          1           0       -0.438279   18.355437   14.177634
    102          1           0       -1.103144   16.694925   13.966079
 ---------------------------------------------------------------------
 Rotational constants (GHZ):      0.0696387      0.0692743      0.0387422
 Standard basis: 6-31G(d) (6D, 7F)
   789 basis functions,  1488 primitive gaussians,   789 cartesian basis functions
   174 alpha electrons      174 beta electrons
       nuclear repulsion energy      6486.5092396401 Hartrees.
 NAtoms=  102 NActive=  102 NUniq=  102 SFac= 1.00D+00 NAtFMM=   60 NAOKFM=T Big=T
 Integral buffers will be    131072 words long.
 Raffenetti 2 integral format.
 Two-electron integral symmetry is turned off.
 ------------------------------------------------------------------------------
 Polarizable Continuum Model (PCM)
 =================================
 Model                : PCM (using non-symmetric T matrix).
 Atomic radii         : UFF (Universal Force Field).
 Polarization charges : Total charges.
 Charge compensation  : None.
 Solution method      : On-the-fly selection.
 Cavity type          : Scaled VdW (van der Waals Surface) (Alpha=1.100).
 Cavity algorithm     : GePol (No added spheres)
                        Default sphere list used, NSphG=  102.
                        Lebedev-Laikov grids with approx.  5.0 points / Ang**2.
                        Smoothing algorithm: Karplus/York (Gamma=1.0000).
                        Polarization charges: spherical gaussians, with
                                              point-specific exponents (IZeta= 3).
                        Self-potential: point-specific (ISelfS= 7).
                        Self-field    : sphere-specific E.n sum rule (ISelfD= 2).
 1st derivatives      : Analytical E(r).r(x)/FMM algorithm (CHGder, D1EAlg=3).
                        Cavity 1st derivative terms included.
 Solvent              : n-Pentadecane, Eps=   2.033300 Eps(inf)=   2.049192
 ------------------------------------------------------------------------------
 One-electron integrals computed using PRISM.
 NBasis=   789 RedAO= T EigKep=  1.95D-03  NBF=   789
 NBsUse=   789 1.00D-06 EigRej= -1.00D+00 NBFU=   789
 Initial guess from the checkpoint file:  "Enniatin_allfree.chk"
 B after Tr=     0.000000    0.000000    0.000000
         Rot=    1.000000    0.000000    0.000000    0.000000 Ang=   0.00 deg.
 Requested convergence on RMS density matrix=1.00D-08 within 128 cycles.
 Requested convergence on MAX density matrix=1.00D-06.
 Requested convergence on             energy=1.00D-06.
 No special actions if energy rises.
 Inv3:  Mode=1 IEnd=   101687052.
 Iteration    1 A*A^-1 deviation from unit magnitude is 4.00D-15 for   4757.
 Iteration    1 A*A^-1 deviation from orthogonality  is 5.18D-15 for   3958   3788.
 Iteration    1 A^-1*A deviation from unit magnitude is 4.11D-15 for   5155.
 Iteration    1 A^-1*A deviation from orthogonality  is 3.00D-14 for   4967   4951.
 Error on total polarization charges =  0.00764
 SCF Done:  E(RB-P86) =  -2133.17931652     A.U. after    6 cycles
            NFock=  6  Conv=0.58D-08     -V/T= 2.0106
 QCSCF skips out because SCF is already converged.

 **********************************************************************

            Population analysis using the SCF density.

 **********************************************************************

 Alpha  occ. eigenvalues --  -18.85177 -18.85158 -18.85147 -18.79892 -18.79883
 Alpha  occ. eigenvalues --  -18.79871 -18.76458 -18.76453 -18.76440 -14.06733
 Alpha  occ. eigenvalues --  -14.06724 -14.06717 -10.04774 -10.04761 -10.04745
 Alpha  occ. eigenvalues --  -10.01200 -10.01200 -10.01182  -9.98262  -9.98250
 Alpha  occ. eigenvalues --   -9.98242  -9.96465  -9.96456  -9.96456  -9.94257
 Alpha  occ. eigenvalues --   -9.94250  -9.94238  -9.93411  -9.93380  -9.93376
 Alpha  occ. eigenvalues --   -9.92619  -9.92611  -9.92609  -9.91161  -9.91142
 Alpha  occ. eigenvalues --   -9.91135  -9.91036  -9.91030  -9.91018  -9.90848
 Alpha  occ. eigenvalues --   -9.90847  -9.90826  -9.90584  -9.90578  -9.90576
 Alpha  occ. eigenvalues --   -1.01648  -1.01602  -1.01583  -0.94773  -0.94768
 Alpha  occ. eigenvalues --   -0.94510  -0.93439  -0.93278  -0.93268  -0.85663
 Alpha  occ. eigenvalues --   -0.85654  -0.85614  -0.75119  -0.74446  -0.74437
 Alpha  occ. eigenvalues --   -0.73481  -0.73471  -0.73193  -0.68126  -0.67424
 Alpha  occ. eigenvalues --   -0.67417  -0.65067  -0.65050  -0.64652  -0.63342
 Alpha  occ. eigenvalues --   -0.63332  -0.62272  -0.62134  -0.62116  -0.61835
 Alpha  occ. eigenvalues --   -0.61646  -0.61641  -0.61104  -0.55448  -0.54374
 Alpha  occ. eigenvalues --   -0.54368  -0.53063  -0.53057  -0.52787  -0.50600
 Alpha  occ. eigenvalues --   -0.50216  -0.50207  -0.48529  -0.48452  -0.48433
 Alpha  occ. eigenvalues --   -0.48271  -0.47301  -0.47278  -0.45251  -0.45236
 Alpha  occ. eigenvalues --   -0.44175  -0.43918  -0.43574  -0.43571  -0.43028
 Alpha  occ. eigenvalues --   -0.43017  -0.42818  -0.42481  -0.41747  -0.41743
 Alpha  occ. eigenvalues --   -0.40018  -0.39783  -0.39774  -0.39699  -0.39695
 Alpha  occ. eigenvalues --   -0.39313  -0.38772  -0.38575  -0.38543  -0.37916
 Alpha  occ. eigenvalues --   -0.37902  -0.37658  -0.36170  -0.36147  -0.36145
 Alpha  occ. eigenvalues --   -0.36069  -0.35889  -0.35885  -0.35368  -0.35349
 Alpha  occ. eigenvalues --   -0.35146  -0.34934  -0.34874  -0.34861  -0.34277
 Alpha  occ. eigenvalues --   -0.34217  -0.34204  -0.33922  -0.33894  -0.33883
 Alpha  occ. eigenvalues --   -0.33680  -0.33678  -0.33393  -0.33333  -0.33297
 Alpha  occ. eigenvalues --   -0.33283  -0.32299  -0.32162  -0.32152  -0.31325
 Alpha  occ. eigenvalues --   -0.30992  -0.30972  -0.30270  -0.30256  -0.30144
 Alpha  occ. eigenvalues --   -0.30128  -0.30051  -0.29808  -0.29654  -0.29645
 Alpha  occ. eigenvalues --   -0.29410  -0.29332  -0.29323  -0.29277  -0.28654
 Alpha  occ. eigenvalues --   -0.28645  -0.28610  -0.26995  -0.26896  -0.26882
 Alpha  occ. eigenvalues --   -0.24697  -0.24693  -0.24030  -0.20956  -0.20943
 Alpha  occ. eigenvalues --   -0.20772  -0.20591  -0.20573  -0.20560
 Alpha virt. eigenvalues --   -0.05634  -0.04621  -0.04614  -0.03118  -0.03005
 Alpha virt. eigenvalues --   -0.02994   0.04019   0.04799   0.04807   0.06491
 Alpha virt. eigenvalues --    0.06513   0.07099   0.07265   0.07850   0.07864
 Alpha virt. eigenvalues --    0.08336   0.08408   0.08430   0.09176   0.09188
 Alpha virt. eigenvalues --    0.09500   0.09996   0.10008   0.10114   0.10432
 Alpha virt. eigenvalues --    0.10439   0.10743   0.11029   0.11042   0.11108
 Alpha virt. eigenvalues --    0.11245   0.11582   0.11596   0.12089   0.12162
 Alpha virt. eigenvalues --    0.12189   0.12798   0.12815   0.12932   0.13664
 Alpha virt. eigenvalues --    0.13917   0.13936   0.14033   0.14127   0.14160
 Alpha virt. eigenvalues --    0.14443   0.14466   0.14491   0.14679   0.14688
 Alpha virt. eigenvalues --    0.14770   0.15096   0.15121   0.15189   0.15414
 Alpha virt. eigenvalues --    0.15746   0.15807   0.15983   0.16013   0.16371
 Alpha virt. eigenvalues --    0.16635   0.16651   0.16687   0.17327   0.17349
 Alpha virt. eigenvalues --    0.17949   0.17958   0.18015   0.18470   0.18637
 Alpha virt. eigenvalues --    0.18667   0.19296   0.19661   0.19849   0.19864
 Alpha virt. eigenvalues --    0.19881   0.20318   0.20544   0.20560   0.21009
 Alpha virt. eigenvalues --    0.21035   0.21293   0.21393   0.21415   0.21706
 Alpha virt. eigenvalues --    0.21798   0.21803   0.22096   0.22127   0.22344
 Alpha virt. eigenvalues --    0.22841   0.22850   0.23361   0.23573   0.24453
 Alpha virt. eigenvalues --    0.24498   0.27619   0.27624   0.28088   0.30826
 Alpha virt. eigenvalues --    0.31332   0.31354   0.34587   0.34623   0.34786
 Alpha virt. eigenvalues --    0.37087   0.37555   0.37566   0.40602   0.42528
 Alpha virt. eigenvalues --    0.42545   0.42653   0.43511   0.43554   0.44797
 Alpha virt. eigenvalues --    0.45005   0.45009   0.45490   0.45535   0.46016
 Alpha virt. eigenvalues --    0.47033   0.47047   0.47431   0.47830   0.47837
 Alpha virt. eigenvalues --    0.48269   0.49434   0.49543   0.49567   0.50664
 Alpha virt. eigenvalues --    0.50671   0.50761   0.51198   0.52133   0.52169
 Alpha virt. eigenvalues --    0.52230   0.53021   0.53039   0.53504   0.53561
 Alpha virt. eigenvalues --    0.53943   0.54699   0.54718   0.54794   0.55792
 Alpha virt. eigenvalues --    0.55828   0.55866   0.57034   0.57069   0.57528
 Alpha virt. eigenvalues --    0.59409   0.59417   0.59450   0.59849   0.59896
 Alpha virt. eigenvalues --    0.60482   0.61043   0.61096   0.61623   0.62777
 Alpha virt. eigenvalues --    0.62819   0.62972   0.63189   0.63276   0.63492
 Alpha virt. eigenvalues --    0.64476   0.64512   0.64865   0.65908   0.66029
 Alpha virt. eigenvalues --    0.66048   0.66528   0.66538   0.66555   0.67294
 Alpha virt. eigenvalues --    0.67322   0.67948   0.68853   0.68886   0.70171
 Alpha virt. eigenvalues --    0.71482   0.71525   0.71771   0.72594   0.72630
 Alpha virt. eigenvalues --    0.72672   0.73709   0.73755   0.74472   0.74562
 Alpha virt. eigenvalues --    0.74612   0.74867   0.75117   0.75343   0.75379
 Alpha virt. eigenvalues --    0.75618   0.75821   0.75832   0.76605   0.76614
 Alpha virt. eigenvalues --    0.76926   0.77896   0.77924   0.78190   0.78803
 Alpha virt. eigenvalues --    0.79804   0.79856   0.80126   0.80457   0.80494
 Alpha virt. eigenvalues --    0.80530   0.81703   0.81734   0.81837   0.82248
 Alpha virt. eigenvalues --    0.82265   0.82519   0.82532   0.83052   0.83083
 Alpha virt. eigenvalues --    0.83600   0.83658   0.83701   0.84249   0.84291
 Alpha virt. eigenvalues --    0.84873   0.85110   0.85141   0.85470   0.85742
 Alpha virt. eigenvalues --    0.85781   0.85900   0.86361   0.86730   0.86797
 Alpha virt. eigenvalues --    0.87465   0.87508   0.88129   0.88150   0.88335
 Alpha virt. eigenvalues --    0.88595   0.88627   0.88800   0.89360   0.89471
 Alpha virt. eigenvalues --    0.89535   0.89937   0.89961   0.90318   0.91442
 Alpha virt. eigenvalues --    0.91531   0.91844   0.92036   0.92060   0.92916
 Alpha virt. eigenvalues --    0.93643   0.93658   0.93904   0.95355   0.95441
 Alpha virt. eigenvalues --    0.95513   0.97477   0.97573   0.97669   0.97857
 Alpha virt. eigenvalues --    0.98170   0.98252   0.99164   0.99233   0.99643
 Alpha virt. eigenvalues --    1.00950   1.00987   1.01256   1.01317   1.01408
 Alpha virt. eigenvalues --    1.02700   1.02854   1.03564   1.04359   1.04848
 Alpha virt. eigenvalues --    1.04936   1.05235   1.06476   1.06921   1.07027
 Alpha virt. eigenvalues --    1.08869   1.08983   1.09372   1.10323   1.10562
 Alpha virt. eigenvalues --    1.10691   1.11974   1.12034   1.12147   1.14293
 Alpha virt. eigenvalues --    1.14460   1.14505   1.16775   1.16867   1.17147
 Alpha virt. eigenvalues --    1.18378   1.18506   1.18951   1.21302   1.21393
 Alpha virt. eigenvalues --    1.21517   1.23985   1.24990   1.25042   1.28143
 Alpha virt. eigenvalues --    1.28253   1.28612   1.30867   1.30943   1.31467
 Alpha virt. eigenvalues --    1.31885   1.32467   1.32499   1.34504   1.36178
 Alpha virt. eigenvalues --    1.36203   1.37399   1.37558   1.38179   1.38816
 Alpha virt. eigenvalues --    1.39472   1.39562   1.40977   1.41494   1.41512
 Alpha virt. eigenvalues --    1.41566   1.42815   1.42858   1.43128   1.43684
 Alpha virt. eigenvalues --    1.45274   1.45337   1.46516   1.46764   1.46862
 Alpha virt. eigenvalues --    1.47933   1.47977   1.50898   1.51059   1.51356
 Alpha virt. eigenvalues --    1.53812   1.53867   1.54258   1.55678   1.55825
 Alpha virt. eigenvalues --    1.55837   1.57079   1.57142   1.57515   1.57915
 Alpha virt. eigenvalues --    1.59216   1.59337   1.60002   1.60033   1.60595
 Alpha virt. eigenvalues --    1.60956   1.61075   1.61768   1.62850   1.62911
 Alpha virt. eigenvalues --    1.62982   1.63996   1.64474   1.64566   1.67725
 Alpha virt. eigenvalues --    1.68125   1.68170   1.69809   1.70079   1.70229
 Alpha virt. eigenvalues --    1.70863   1.70924   1.71245   1.72470   1.72512
 Alpha virt. eigenvalues --    1.73954   1.74251   1.74328   1.74646   1.75623
 Alpha virt. eigenvalues --    1.75727   1.75763   1.76699   1.76734   1.77436
 Alpha virt. eigenvalues --    1.78253   1.78304   1.78356   1.79813   1.80043
 Alpha virt. eigenvalues --    1.80067   1.80764   1.80836   1.80880   1.82258
 Alpha virt. eigenvalues --    1.82301   1.83184   1.83617   1.83628   1.84685
 Alpha virt. eigenvalues --    1.85445   1.85464   1.85730   1.86531   1.86586
 Alpha virt. eigenvalues --    1.87300   1.87875   1.88236   1.88325   1.89230
 Alpha virt. eigenvalues --    1.89329   1.90634   1.90898   1.91222   1.91335
 Alpha virt. eigenvalues --    1.92383   1.92586   1.92615   1.93435   1.93623
 Alpha virt. eigenvalues --    1.93664   1.94478   1.94635   1.94683   1.95356
 Alpha virt. eigenvalues --    1.96261   1.96335   1.96699   1.96756   1.97315
 Alpha virt. eigenvalues --    1.97699   1.98064   1.98215   1.98390   1.98489
 Alpha virt. eigenvalues --    1.98995   2.01198   2.01418   2.01435   2.01746
 Alpha virt. eigenvalues --    2.01831   2.02238   2.02569   2.02612   2.03158
 Alpha virt. eigenvalues --    2.03855   2.03966   2.04920   2.07580   2.07951
 Alpha virt. eigenvalues --    2.08024   2.09220   2.09315   2.09357   2.10325
 Alpha virt. eigenvalues --    2.10498   2.10618   2.11750   2.12513   2.12673
 Alpha virt. eigenvalues --    2.13182   2.13240   2.15187   2.15242   2.15259
 Alpha virt. eigenvalues --    2.15515   2.16257   2.16306   2.16865   2.17148
 Alpha virt. eigenvalues --    2.17191   2.17432   2.17921   2.17994   2.18228
 Alpha virt. eigenvalues --    2.20104   2.20166   2.20517   2.22194   2.22222
 Alpha virt. eigenvalues --    2.22368   2.24371   2.24675   2.24716   2.28397
 Alpha virt. eigenvalues --    2.30057   2.30106   2.31299   2.31726   2.31803
 Alpha virt. eigenvalues --    2.34387   2.35078   2.35127   2.36259   2.36377
 Alpha virt. eigenvalues --    2.36567   2.37545   2.37672   2.38112   2.39555
 Alpha virt. eigenvalues --    2.39638   2.39737   2.41250   2.41317   2.41405
 Alpha virt. eigenvalues --    2.43274   2.43368   2.43651   2.45371   2.45384
 Alpha virt. eigenvalues --    2.45576   2.46755   2.46798   2.46961   2.47534
 Alpha virt. eigenvalues --    2.47681   2.47726   2.52624   2.52690   2.53202
 Alpha virt. eigenvalues --    2.54234   2.54290   2.54801   2.56013   2.56913
 Alpha virt. eigenvalues --    2.57008   2.61725   2.61873   2.62398   2.62974
 Alpha virt. eigenvalues --    2.63085   2.64282   2.65196   2.65423   2.65475
 Alpha virt. eigenvalues --    2.67685   2.67778   2.67845   2.68517   2.68607
 Alpha virt. eigenvalues --    2.71184   2.74552   2.74581   2.76035   2.77165
 Alpha virt. eigenvalues --    2.77859   2.77920   2.85584   2.87361   2.87406
 Alpha virt. eigenvalues --    2.91289   2.92045   2.92112   2.93402   2.94259
 Alpha virt. eigenvalues --    2.94330   2.99308   2.99648   2.99773   3.02121
 Alpha virt. eigenvalues --    3.03028   3.03074   3.07262   3.07494   3.07532
 Alpha virt. eigenvalues --    3.87677   3.90779   3.90943   3.94637   3.94890
 Alpha virt. eigenvalues --    3.96279   4.06384   4.06739   4.06901   4.10020
 Alpha virt. eigenvalues --    4.10101   4.10246   4.14838   4.16049   4.16349
 Alpha virt. eigenvalues --    4.17958   4.19343   4.19380   4.20331   4.20852
 Alpha virt. eigenvalues --    4.20886   4.20974   4.21418   4.21656   4.26919
 Alpha virt. eigenvalues --    4.27703   4.27888   4.29330   4.29426   4.29509
 Alpha virt. eigenvalues --    4.39020   4.39288   4.40872   4.41359   4.41556
 Alpha virt. eigenvalues --    4.41589   4.47264   4.47368   4.50561   4.60493
 Alpha virt. eigenvalues --    4.60598   4.61080   4.61934   4.62137   4.62900
          Condensed to atoms (all electrons):
 Mulliken charges:
               1
     1  N   -0.387013
     2  C   -0.104519
     3  C    0.605775
     4  O   -0.461482
     5  C   -0.426250
     6  C   -0.094851
     7  C   -0.495352
     8  C   -0.503688
     9  O   -0.407867
    10  C   -0.000328
    11  C    0.570529
    12  O   -0.495326
    13  C   -0.102288
    14  C   -0.507022
    15  C   -0.502977
    16  C   -0.000362
[...]
 .00000510,-0.00001068,-0.00001459,0.00000483,-0.00000007,-0.00000179,0
 .00000707,-0.00000105,-0.00000177,0.00000650,-0.00000578,0.00000252,0.
 00000263,0.00001477,-0.00000677,-0.00000427,0.00002160,-0.00001882,-0.
 00000423,-0.00003519,0.00002376,-0.00001582,-0.00000599,0.00001675,-0.
 00000472,0.00000112,0.00000502,-0.00000566,0.00000140,0.00000197,-0.00
 000020,0.00000323,-0.00000925,0.00000074,-0.00000073,0.00000466,-0.000
 00149,-0.00000153,0.00000043,-0.00000178,-0.00000102,0.00000186,-0.000
 00203,-0.00000876,0.00000136,-0.00000253,0.00000611,-0.00000719,0.0000
 0135,0.00000124,0.00000186,0.00000321,-0.00000073,0.00000129,0.0000005
 1,-0.00000106,0.00000450,0.00000318,0.00000072,0.00000014,0.00000317,-
 0.00000067,-0.00000727,-0.00000293,-0.00000037,0.00000086,0.00000400,0
 .00000530,0.00000245,0.00000232,-0.00000379,-0.00000605,-0.00000285,0.
 00000119,0.00002548,0.00000023,0.00003417,0.00001556,-0.00002514,-0.00
 002015,-0.00002243,-0.00000577,0.00000210,0.00000405,0.00000034,-0.000
 01760,-0.00000224,-0.00000129,0.00001595,-0.00000672,-0.00000764,0.000
 00616,0.00000760,-0.00000211,-0.00001375,-0.00000921,-0.00000034,0.000
 00264,-0.00000023,-0.00000158,0.00000476,0.00000130,0.00000284,-0.0000
 0514,-0.00001821,0.00000044,-0.00019640,-0.00020359,0.00012368,0.00010
 137,-0.00002083,0.00004910,-0.00002491,0.00000439,0.00002295,-0.000030
 13,0.00000745,0.00000564,0.00001365,0.00000121,0.00001549,-0.00001560,
 -0.00005777,-0.00000136,-0.00002559,0.00002479,0.00003401,-0.00004693,
 0.00006095,0.00006177,0.00003408,-0.01055964,-0.00265166,-0.04723514,0
 .27970599,-0.00000491,0.00000402,0.00003345,0.00000387,0.00001957,0.00
 004315,0.00001510,0.00007859,-0.00076202,0.00022475,0.00011636,0.00039
 897,-0.00000067,-0.00000259,-0.00002877,0.00000473,-0.00000772,-0.0000
 0805,-0.00000486,0.00000193,0.00000324,-0.00000322,-0.00000244,0.00000
 004,-0.00038539,-0.00016483,0.00051406,0.00000213,0.00000542,-0.000005
 23,0.00001035,0.00000066,-0.00007239,-0.00001173,-0.00002873,0.0000538
 3,0.00000062,0.00000003,-0.00000150,0.00000027,0.00000103,-0.00000047,
 0.00000011,0.00000054,-0.00000054,0.00049386,0.00004623,-0.00045490,0.
 00000971,-0.00000784,0.00003138,-0.00074793,0.00173036,-0.00356365,0.0
 0000884,-0.00002371,0.00006012,-0.00053531,-0.00025607,0.00104140,-0.0
 0001958,0.00001674,0.00005270,-0.00004741,-0.00004749,0.00004926,0.006
 36922,-0.02696191,-0.02573716,-0.00000435,0.00000035,0.00001616,-0.001
 95548,-0.00166983,-0.00039447,0.00001478,-0.00000786,-0.00008283,-0.00
 008024,0.00083828,-0.00143368,-0.00000790,-0.00002050,-0.00003127,0.01
 157274,-0.06254766,-0.06157456,-0.00000371,0.,-0.00000651,0.00044415,-
 0.00011103,0.00043937,0.00000020,-0.00000043,0.00000109,0.00090998,-0.
 00008224,0.00008874,0.00000244,-0.00000114,0.00000159,-0.00010217,0.00
 025285,0.00009206,0.00010800,-0.00011438,0.00028329,-0.00010233,-0.000
 09033,-0.00001713,0.00007933,0.00006296,-0.00009204,0.00554328,-0.0032
 6270,0.00365607,-0.00000778,-0.00000341,0.00001006,-0.00016151,-0.0001
 8332,0.00008392,0.00000297,0.00000787,-0.00000676,0.00011284,-0.000166
 26,-0.00009584,-0.00000487,0.00000451,-0.00000707,0.00000450,0.0001088
 0,-0.00006414,0.00008461,0.00000017,-0.00010014,0.00030816,0.00026646,
 0.00008699,-0.00008126,0.00000683,0.00000088,-0.00003949,-0.00004557,-
 0.00000695,0.00009038,0.00002046,-0.00000393,-0.00020298,0.00000520,0.
 00004864,-0.00035392,-0.00011332,0.00011837,-0.00042057,0.00062315,-0.
 00047004,0.00002408,-0.00002062,0.00000144,-0.00000210,0.00000476,0.00
 000609,0.00000434,0.00000052,0.00000002,-0.00000825,-0.00000851,-0.000
 00333,0.00000540,-0.00000301,0.00000697,0.00000246,-0.00000106,0.00000
 411,-0.00000143,0.00000032,-0.00000042,0.00000456,-0.00000300,-0.00000
 077,-0.00000198,0.00001030,0.00001237,0.00002724,0.00000932,-0.0000111
 8,0.00000193,-0.00002160,0.00000439,-0.00000034,0.00000860,-0.00000177
 ,0.00000099,-0.00000181,0.00000401,0.00000016,-0.00000174,-0.00000002,
 -0.00000113,-0.00000034,-0.00000057,-0.00000034,0.00000109,0.00000138,
 -0.00000047,0.00000176,0.00000181,-0.00000083,0.00000102,-0.00000248,0
 .00000050,-0.00000165,0.00000039,0.00000002,-0.00000464,0.00000180,0.0
 0000031,0.00000123,0.00000220,-0.00000046,0.00000027,-0.00000069,-0.00
 000035,-0.00000113,0.00000155,0.00000039,0.00000006,-0.00000008,-0.000
 00054,-0.00000124,0.00000181,0.00000098,-0.00000012,-0.00000070,0.0000
 0006,0.00000011,0.,0.00000247,-0.00001865,-0.00000284,-0.00002054,0.00
 000287,0.00000337,0.00000481,0.00000214,0.00001243,0.00000352,0.000002
 11,0.00000396,-0.00000285,-0.00000152,0.00000114,0.00000199,0.00000114
 ,-0.00000424,0.00000111,-0.00000047,-0.00000108,-0.00000222,-0.0000018
 9,-0.00000004,0.00000193,0.00000071,0.00000166,-0.00000445,-0.00000243
 ,0.00000600,0.00001325,0.00001261,0.00000685,-0.00050813,-0.00004704,0
 .00003122,0.00008668,0.00004216,0.00010260,-0.00003831,-0.00000131,0.0
 0002490,-0.00005078,0.00000117,-0.00000104,0.00001580,0.00000133,0.000
 00505,0.00000199,-0.00008009,-0.00010745,0.00000421,0.00006028,0.00009
 029,-0.00016094,0.00014460,0.00009525,-0.00119357,0.01468017,0.0063341
 5,-0.01730419,0.07392813,0.07929744,-0.00008851,0.00025221,0.00010560,
 0.00005277,-0.00031298,0.00064623,0.00003314,-0.00006757,-0.00536602,-
 0.00098926,0.00022311,0.00273458,-0.00005066,0.00000335,0.00006992,-0.
 00016138,0.00004552,0.00008538,0.00005894,-0.00004121,-0.00003642,-0.0
 0000340,-0.00001212,-0.00003257,-0.00056766,-0.00126980,0.00183854,0.0
 0010409,-0.00001827,0.00002336,0.00014614,-0.00007722,-0.00032370,-0.0
 0007760,0.00005794,0.00016213,-0.00002344,0.00000567,-0.00001391,0.000
 00459,-0.00001032,0.00000437,0.00001002,0.00000176,0.00001129,-0.00078
 154,0.00085357,-0.00145181,-0.00016406,0.00001490,-0.00009955,-0.00008
 147,0.00006008,-0.00049521,0.00000642,0.00000515,-0.00005512,-0.000163
 48,0.00039728,0.00001378,-0.00002270,-0.00003791,-0.00011605,0.0000501
 2,0.00000458,-0.00004107,-0.00659332,-0.00116814,0.00297843,0.00001302
 ,0.00003890,-0.00001221,0.00069631,-0.00043602,0.00092973,0.00006792,0
 .00003851,0.00021939,0.00013792,-0.00045505,0.00006492,0.00000407,0.00
 002736,0.00002896,-0.21441167,-0.12373029,0.03191670,-0.00000590,-0.00
 000185,0.00000893,0.00009345,0.00023215,-0.00004893,0.00000041,0.00000
 214,-0.00000114,-0.00015353,-0.00001532,-0.00003930,0.00000458,0.00000
 106,-0.00000008,-0.00000782,-0.00007611,-0.00000453,-0.00004609,0.0001
 2649,0.00003054,0.00001154,-0.00000720,0.00002411,-0.00006809,-0.00005
 475,0.00007781,0.00058007,0.00022238,-0.00015676,-0.00000451,0.0000088
 2,0.00000174,0.00003638,0.00001698,-0.00018499,0.00000059,-0.00000193,
 0.00000425,0.00004767,0.00001287,0.00003117,0.00000599,-0.00000434,0.0
 0000147,0.00003466,-0.00002831,0.00002997,-0.00035063,-0.00005505,-0.0
 0006201,-0.00010758,0.00007029,0.00009761,0.00001279,0.00000213,-0.000
 00298,0.00000324,0.00000406,-0.00001586,-0.00002737,-0.00000777,-0.000
 00290,0.00002221,-0.00002512,0.00000258,0.00008631,-0.00000846,-0.0000
 2342,0.00009965,-0.00006955,0.00010708,-0.00000574,-0.00000067,-0.0000
 0256,-0.00000159,-0.00000256,-0.00000165,0.00000027,0.00000216,-0.0000
 0034,0.00000110,0.00000250,-0.00000130,-0.00000143,0.00000052,-0.00000
 181,-0.00000196,-0.00000029,-0.00000215,-0.00000159,0.00000216,0.00000
 120,0.00000042,0.00000192,-0.00000109,0.00001296,-0.00001909,-0.000016
 73,-0.00006152,-0.00003366,0.00001800,-0.00000305,0.00005230,0.0000000
 6,0.00000202,-0.00000392,-0.00000480,0.00000080,0.00000303,-0.00000577
 ,-0.00000169,-0.00000181,-0.00000028,-0.00000115,-0.00000035,0.0000036
 1,0.00000135,-0.00000176,-0.00000424,0.00000015,-0.00000099,-0.0000030
 5,-0.00000505,-0.00000280,0.00000179,-0.00000016,-0.00000056,0.0000008
 3,-0.00000297,0.00000425,0.00000246,0.00000412,-0.00000709,-0.00000253
 ,-0.00000633,0.00000209,0.00000181,0.00000074,0.00000275,-0.00000378,-
 0.00000366,0.00000716,0.00000015,0.00000104,-0.00000256,-0.00000186,-0
 .00001187,0.00000029,-0.00000822,-0.00000312,0.00000736,0.00000297,0.0
 0001389,0.00007773,0.00000577,0.00010498,-0.00014433,0.00010142,-0.000
 00776,0.00002073,-0.00002342,0.00000123,0.00000740,0.00001525,0.000039
 23,0.00001317,0.00000490,-0.00004186,0.00005589,-0.00000017,-0.0000135
 0,0.00001308,0.00000112,0.00003378,0.00003371,0.00000087,-0.00000121,0
 .00000529,0.00000833,-0.00002497,-0.00004995,0.00001082,0.00012000,0.0
 0020194,0.00000822,-0.00125410,0.00092588,-0.00264365,0.00005075,0.000
 00476,-0.00003996,-0.00000403,0.00001659,0.00000155,0.00001299,-0.0000
 2007,0.00001065,-0.00004473,-0.00000398,-0.00002715,-0.00002282,-0.000
 00875,0.00001214,-0.00001552,-0.00003178,-0.00000062,0.00001351,-0.000
 00291,-0.00001314,-0.01578986,-0.01393616,0.00339957,0.00747149,0.0058
 8345,-0.00203929,0.23197311,0.00002146,0.00024136,0.00015721,-0.000286
 05,-0.00008627,0.00015458,-0.00035746,-0.00013194,-0.00437050,0.000158
 35,-0.00112043,0.00206585,-0.00001044,-0.00004616,-0.00001602,-0.00010
 581,-0.00000854,0.00003824,0.00002943,-0.00002211,-0.00001440,0.000015
 32,0.00001358,-0.00001523,-0.00062634,-0.00150485,0.00124796,0.0000194
 1,-0.00003389,0.00000523,0.00009630,-0.00011038,-0.00028759,-0.0000128
 5,0.00002117,0.00016144,-0.00001806,-0.00000693,-0.00001635,-0.0000003
 5,0.00000112,0.00000660,0.00001082,0.00000325,0.00001127,-0.00026146,0
 .00136142,0.00097986,-0.00006405,0.00003199,-0.00000638,0.00007395,-0.
 00006472,-0.00001694,-0.00003745,-0.00004105,0.00001903,0.00024556,-0.
 00031056,-0.00023522,-0.00006635,0.00004354,0.00003285,-0.00008040,-0.
 00005038,0.00003214,0.00404375,0.00283890,0.00091563,0.00001529,-0.000
 00644,0.00001040,0.00064494,0.00007492,-0.00121354,0.00010540,-0.00002
 451,-0.00002798,-0.00014512,0.00041145,0.00037237,0.00000364,-0.000011
 07,-0.00000284,-0.12523938,-0.13959932,0.02165977,-0.00000176,-0.00001
 444,0.00000353,0.00000508,-0.00012204,-0.00026484,0.00000021,0.0000075
 4,-0.00000409,0.00021286,0.00008702,0.00007930,0.00000189,0.00000046,-
 0.00000173,-0.00000866,0.00009912,0.00008481,0.00009178,-0.00025664,-0
 .00021801,-0.00006050,0.00006012,-0.00001929,0.00009989,0.00010692,-0.
 00005151,-0.00008657,0.00049580,-0.00017032,-0.00000135,-0.00001908,0.
 00000632,0.00019256,-0.00031812,-0.00044378,0.00000517,0.00000949,-0.0
 0000882,-0.00002520,0.00000268,0.00006761,-0.00000358,0.00000430,-0.00
 000166,0.00003892,0.00004842,0.00003236,0.00036345,0.00006871,-0.00017
 814,0.00003730,-0.00015150,0.00013146,-0.00003259,-0.00000322,-0.00000
 020,-0.00002738,-0.00000479,-0.00000284,0.00003821,0.00001319,-0.00000
 190,-0.00002770,0.00002918,-0.00000616,-0.00009430,0.00000153,0.000033
 11,-0.00013439,0.00007659,-0.00013241,-0.00000338,0.00000340,0.0000082
 4,0.00000451,0.00000477,-0.00000264,0.00000394,-0.00000287,-0.00000188
 ,-0.00000467,-0.00000818,0.00000471,-0.00000172,-0.00000084,0.00000011
 ,0.00000035,0.00000049,0.00000147,0.00000073,-0.00000512,-0.00000136,0
 .00000405,-0.00000507,0.00000026,-0.00001230,0.00000844,0.00000729,0.0
 0003342,0.00004092,-0.00001356,0.00001235,-0.00002559,0.00000977,-0.00
 000012,0.00000396,-0.00000444,0.00000167,0.00000010,0.00000119,-0.0000
 0340,0.00000205,-0.00000103,-0.00000335,-0.00000555,0.00000236,0.00000
 126,-0.00000052,0.00000043,0.00000026,0.00000066,0.00000228,-0.0000001
 7,-0.00000210,-0.00000176,-0.00000450,0.00000104,0.00000042,-0.0000019
 6,-0.00000674,0.00000143,0.00000284,-0.00000315,0.00000094,-0.00000222
 ,-0.00000293,-0.00000204,-0.00000068,-0.00000016,-0.00000254,-0.000001
 08,0.00000976,0.00000242,0.00000004,-0.00000323,-0.00000210,-0.0000096
 5,-0.00000271,-0.00000558,0.00000210,0.00000859,0.00000377,0.00001223,
 -0.00003425,-0.00000297,-0.00005829,-0.00006237,0.00005611,0.00002463,
 0.00004182,0.00001737,0.00000630,0.00000298,0.00001275,0.00002532,-0.0
 0000019,0.00000655,-0.00002323,0.00003105,-0.00000505,-0.00000934,-0.0
 0001031,0.00000069,0.00002016,0.00001519,0.00000049,-0.00000085,0.0000
 0429,0.00000682,-0.00001953,-0.00002044,0.00001486,0.00004319,0.000081
 80,0.00002529,0.00146554,-0.00038499,0.00072879,-0.00008998,0.00011113
 ,-0.00014295,0.00001833,-0.00001669,0.00000225,-0.00002245,-0.00000528
 ,-0.00001225,-0.00003019,-0.00001415,-0.00002186,0.00000317,-0.0000086
 8,-0.00000977,-0.00000511,0.00000010,-0.00002338,0.00000994,-0.0000477
 3,-0.00001022,0.01068231,0.00866704,-0.00296622,-0.02301711,-0.0153960
 7,0.00300902,0.13219128,0.14495194,0.00001543,0.00016810,0.00006748,-0
 .00010430,-0.00004932,0.00004184,-0.00127363,-0.00118564,-0.00188911,0
 .00176317,0.00112231,-0.00005027,-0.00003079,0.00001052,0.00005516,-0.
 00008077,0.00003383,0.00006203,0.00003099,-0.00002595,-0.00002158,0.00
 000442,-0.00000355,-0.00002072,-0.00017344,-0.00033745,0.00022959,0.00
 003521,-0.00002543,0.00001558,0.00005177,-0.00007033,-0.00017876,-0.00
 001844,0.00003882,0.00007823,-0.00001394,0.00000052,-0.00001178,0.0000
 0131,-0.00000419,0.00000537,0.00000708,0.00000144,0.00000889,-0.000737
 47,0.00019481,-0.00125137,-0.00008413,0.00002321,-0.00005213,-0.000248
 11,-0.00056443,-0.00082957,-0.00002172,-0.00001954,-0.00001171,-0.0001
 7033,0.00001198,0.00070970,-0.00002301,0.00000305,-0.00004747,-0.00002
 791,-0.00002194,-0.00000148,0.03061887,0.01670263,-0.01191715,0.000008
 31,0.00000590,0.00000011,-0.00184151,0.00145483,-0.00530810,0.00006759
 ,-0.00000682,0.00009233,-0.00053335,0.00049677,-0.00070835,-0.00000031
 ,-0.00000221,0.00000946,0.02303770,0.01639520,-0.05078844,-0.00000301,
 -0.00000592,0.00000574,-0.00041221,-0.00055830,-0.00071681,-0.00000008
 ,0.00000377,-0.00000214,0.00005455,0.00007086,0.00011778,0.00000155,0.
 00000068,-0.00000058,0.00013629,0.00016255,0.00030329,0.00010108,-0.00
 013151,0.00020141,-0.00004399,0.00001112,0.00000232,0.00005283,0.00003
 451,0.00000175,0.00255773,0.00092753,0.00232792,0.00000268,-0.00001030
 ,0.00001228,-0.00012267,0.00028717,0.00004877,0.00000408,0.00000605,-0
 .00000624,0.00009424,0.00004994,0.00001880,-0.00000628,0.00000740,-0.0
 0000461,-0.00001861,-0.00005263,0.00008964,0.00156549,0.00022511,-0.00
 030963,0.00013715,0.00013007,0.00054500,-0.00001306,0.00000061,-0.0000
 0790,-0.00013386,-0.00003481,0.00007705,0.00007739,0.00001803,0.000018
 76,-0.00001485,0.00004536,-0.00000013,-0.00001297,-0.00008480,0.000056
 18,-0.00005199,0.00001597,-0.00008276,0.00001497,-0.00001720,0.0000047
 0,-0.00000102,0.00000448,0.00000144,0.00000458,-0.00000188,-0.00000036
 ,-0.00000703,-0.00000786,0.00000037,0.00000267,-0.00000312,0.00000311,
 0.00000018,-0.00000072,0.00000103,-0.00000032,-0.00000224,0.00000034,0
 .00000385,-0.00000279,-0.00000059,-0.00000016,0.00000013,-0.00000266,-
 0.00000482,-0.00000400,0.00000887,0.00000293,0.00001137,0.00000794,0.0
 0000210,0.00000086,-0.00000388,0.00000031,0.00000078,-0.00000220,-0.00
 000194,0.00000021,-0.00000019,-0.00000099,-0.00000195,0.00000257,0.000
 00115,-0.00000074,-0.00000196,0.00000039,0.00000018,-0.00000054,-0.000
 00162,-0.00000150,-0.00000032,-0.00000182,0.00000004,0.00000077,-0.000
 00221,0.00000264,-0.00000011,0.00000257,-0.00000407,-0.00000170,-0.000
 00269,-0.00000024,0.,0.00000009,0.00000153,-0.00000285,-0.00000180,0.0
 0000562,0.00000052,0.00000049,-0.00000091,-0.00000236,-0.00000756,-0.0
 0000043,-0.00000425,-0.00000024,0.00000509,0.00000175,0.00000211,0.000
 02253,0.00000855,0.00004783,-0.00005377,0.00007456,0.00000802,0.000016
 72,-0.00001227,-0.00000197,-0.00000152,0.00000131,0.00002567,0.0000102
 4,0.00000312,-0.00002603,0.00003132,0.00001125,-0.00000868,0.00000510,
 0.00000206,0.00001999,0.00001761,0.00000295,-0.00000104,0.00000335,0.0
 0000335,-0.00001517,-0.00002029,0.00000366,0.00002905,0.00003331,-0.00
 001141,-0.00219615,0.00100654,-0.00138523,0.00010959,-0.00007237,0.000
 10709,-0.00000435,0.00000635,-0.00001972,0.00004408,-0.00002042,-0.000
 00180,-0.00002239,0.00000563,-0.00001848,-0.00002086,-0.00003902,-0.00
 000946,-0.00001975,-0.00004101,0.00001337,-0.00002619,0.00001162,-0.00
 000747,-0.01194218,-0.01145800,0.00348370,-0.00778588,-0.00363805,0.00
 188526,-0.03242797,-0.02127475,0.06487248\\-0.00000007,0.00000021,0.,0
 .00000047,0.00000021,-0.00000009,-0.00000089,0.00000053,0.00000011,0.0
 0000040,0.00000021,-0.00000029,-0.00000023,0.00000055,0.00000008,-0.00
 000012,0.00000064,-0.00000019,0.,0.00000052,-0.00000007,0.00000011,0.0
 0000047,-0.00000028,0.00000027,0.00000021,-0.00000056,-0.00000025,0.,0
 .00000018,-0.00000044,-0.00000011,0.00000019,-0.00000009,0.00000040,-0
 .00000009,-0.00000022,-0.00000011,0.00000029,-0.00000033,0.00000026,0.
 00000039,-0.00000038,0.00000004,0.00000042,0.00000041,0.00000047,-0.00
 000019,-0.00000003,0.00000013,0.00000046,0.00000043,0.00000026,-0.0000
 0036,0.00000003,-0.00000045,0.00000009,-0.00000063,-0.00000046,-0.0000
 0011,-0.00000027,0.00000034,0.00000037,-0.00000022,-0.00000052,0.00000
 019,0.00000039,0.00000010,-0.00000030,-0.00000031,0.00000017,0.0000001
 4,-0.00000025,-0.00000041,-0.00000037,-0.00000034,-0.00000082,-0.00000
 009,0.00000150,0.00000084,0.00000034,-0.00000027,0.00000002,0.00000030
 ,0.00000021,0.00000033,-0.00000019,-0.00000026,-0.00000013,0.00000041,
 0.00000061,-0.00000010,-0.00000030,-0.00000046,-0.00000041,0.00000050,
 0.00000055,-0.00000017,-0.00000040,-0.00000070,-0.00000003,0.00000047,
 0.00000037,-0.00000041,-0.00000023,-0.00000021,-0.00000044,-0.00000022
 ,0.00000008,-0.00000046,0.00000013,-0.00000012,-0.00000018,0.00000029,
 0.,-0.00000069,0.00000010,0.00000006,-0.00000033,-0.00000008,0.0000002
 7,-0.00000012,-0.00000055,0.00000008,-0.00000060,0.00000035,0.00000060
 ,0.00000027,-0.00000048,0.00000019,-0.00000042,0.00000004,0.00000035,0
 .00000039,-0.00000044,0.00000022,-0.00000008,-0.00000008,0.00000030,-0
 .00000006,-0.00000035,0.00000022,-0.00000016,-0.00000020,0.00000044,-0
 .00000034,-0.00000019,0.00000039,-0.00000017,-0.00000026,0.00000049,-0
 .00000009,-0.00000045,0.00000051,-0.00000018,-0.00000044,0.00000033,-0
 .00000003,-0.00000042,0.00000003,-0.00000029,0.00000016,0.00000009,-0.
 00000051,0.00000014,0.00000024,-0.00000072,0.00000013,0.00000030,-0.00
 000065,0.,0.00000018,-0.00000048,0.00000005,-0.00000006,-0.00000059,0.
 00000030,-0.00000008,-0.00000061,0.00000037,0.,-0.00000068,0.00000023,
 -0.00000020,-0.00000021,0.00000016,-0.00000010,-0.00000004,0.00000020,
 -0.00000022,0.00000007,0.00000029,-0.00000019,-0.00000023,0.00000044,-
 0.00000040,-0.00000013,0.00000043,-0.00000047,-0.00000026,0.00000065,-
 0.00000045,-0.00000006,0.00000049,-0.00000036,-0.00000026,0.00000049,-
 0.00000031,-0.00000042,0.00000052,-0.00000023,-0.00000030,0.00000040,-
 0.00000035,-0.00000032,0.00000052,-0.00000028,0.00000025,0.00000016,-0
 .00000019,-0.00000001,0.00000024,-0.00000035,-0.00000001,0.00000042,-0
 .00000052,0.00000008,0.00000040,-0.00000051,0.00000004,0.00000043,-0.0
 0000044,0.00000034,0.00000022,-0.00000034,0.00000021,0.00000014,-0.000
 00040,0.00000020,0.00000027,-0.00000028,0.00000033,0.00000011,-0.00000
 015,0.00000031,-0.00000008,-0.00000034,0.00000037,0.00000014,0.0000000
 9,0.00000044,-0.00000023,0.00000002,0.00000058,-0.00000032,0.00000007,
 0.00000050,-0.00000036,-0.00000022,0.00000048,0.00000001,-0.00000027,0
 .00000058,-0.00000009,-0.00000014,0.00000042,-0.00000008,-0.00000016,0
 .00000051,-0.00000017,-0.00000002,0.00000017,-0.00000023,0.00000010,0.
 00000034,-0.00000059,0.00000034,0.00000006,-0.00000033,0.00000040,0.00
 000032,-0.00000058,0.00000034,0.00000032,-0.00000056,0.00000032,0.0000
 0022,-0.00000037,0.00000047,0.00000007,-0.00000043,0.00000056,0.000000
 02,-0.00000060,0.00000048,0.00000019,-0.00000050,0.00000008,0.00000006
 ,-0.00000017,0.00000029,0.00000021,-0.00000040,0.00000040,0.00000003,-
 0.00000003\\\@


 WHAT, THEN, IS TIME?  IF NO ONE ASKS ME, I KNOW WHAT IT IS.
 IF I WISH TO EXPLAIN WHAT IT IS TO HIM WHO ASKS ME, I DO NOT KNOW.
                                   -- ST. AUGUSTINE (FIFTH CENTURY)
 Job cpu time:       0 days 16 hours 29 minutes 39.5 seconds.
 File lengths (MBytes):  RWF=   7432 Int=      0 D2E=      0 Chk=     72 Scr=      1
 Normal termination of Gaussian 09 at Wed Feb 15 23:49:33 2017.
