 Entering Gaussian System, Link 0=g09
 Input=/net/work/kozuch/EnniatinNewBS/nP_EB11Na_indef2TZVP/Freq/nP_EB11Na_in.com
 Output=/net/work/kozuch/EnniatinNewBS/nP_EB11Na_indef2TZVP/Freq/nP_EB11Na_in.log
 Initial command:
 /afs/math/software/gaussian/g09.D01/opt/@sys/l1.exe "/scratch/kozuch_g09.Nc2478O/Gau-20624.inp" -scrdir="/scratch/kozuch_g09.Nc2478O/"
 Entering Link 1 = /afs/math/software/gaussian/g09.D01/opt/@sys/l1.exe PID=     20625.
  
 Copyright (c) 1988,1990,1992,1993,1995,1998,2003,2009,2013,
            Gaussian, Inc.  All Rights Reserved.
  
 This is part of the Gaussian(R) 09 program.  It is based on
 the Gaussian(R) 03 system (copyright 2003, Gaussian, Inc.),
 the Gaussian(R) 98 system (copyright 1998, Gaussian, Inc.),
 the Gaussian(R) 94 system (copyright 1995, Gaussian, Inc.),
 the Gaussian 92(TM) system (copyright 1992, Gaussian, Inc.),
 the Gaussian 90(TM) system (copyright 1990, Gaussian, Inc.),
 the Gaussian 88(TM) system (copyright 1988, Gaussian, Inc.),
 the Gaussian 86(TM) system (copyright 1986, Carnegie Mellon
 University), and the Gaussian 82(TM) system (copyright 1983,
 Carnegie Mellon University). Gaussian is a federally registered
 trademark of Gaussian, Inc.
  
 This software contains proprietary and confidential information,
 including trade secrets, belonging to Gaussian, Inc.
  
 This software is provided under written license and may be
 used, copied, transmitted, or stored only in accord with that
 written license.
  
 The following legend is applicable only to US Government
 contracts under FAR:
  
                    RESTRICTED RIGHTS LEGEND
  
 Use, reproduction and disclosure by the US Government is
 subject to restrictions as set forth in subparagraphs (a)
 and (c) of the Commercial Computer Software - Restricted
 Rights clause in FAR 52.227-19.
  
 Gaussian, Inc.
 340 Quinnipiac St., Bldg. 40, Wallingford CT 06492
  
  
 ---------------------------------------------------------------
 Warning -- This program may not be used in any manner that
 competes with the business of Gaussian, Inc. or will provide
 assistance to any competitor of Gaussian, Inc.  The licensee
 of this program is prohibited from giving any competitor of
 Gaussian, Inc. access to this program.  By using this program,
 the user acknowledges that Gaussian, Inc. is engaged in the
 business of creating and licensing software in the field of
 computational chemistry and represents and warrants to the
 licensee that it is not a competitor of Gaussian, Inc. and that
 it will not use this program in any manner prohibited above.
 ---------------------------------------------------------------
  

 Cite this work as:
 Gaussian 09, Revision D.01,
 M. J. Frisch, G. W. Trucks, H. B. Schlegel, G. E. Scuseria, 
 M. A. Robb, J. R. Cheeseman, G. Scalmani, V. Barone, B. Mennucci, 
 G. A. Petersson, H. Nakatsuji, M. Caricato, X. Li, H. P. Hratchian, 
 A. F. Izmaylov, J. Bloino, G. Zheng, J. L. Sonnenberg, M. Hada, 
 M. Ehara, K. Toyota, R. Fukuda, J. Hasegawa, M. Ishida, T. Nakajima, 
 Y. Honda, O. Kitao, H. Nakai, T. Vreven, J. A. Montgomery, Jr., 
 J. E. Peralta, F. Ogliaro, M. Bearpark, J. J. Heyd, E. Brothers, 
 K. N. Kudin, V. N. Staroverov, T. Keith, R. Kobayashi, J. Normand, 
 K. Raghavachari, A. Rendell, J. C. Burant, S. S. Iyengar, J. Tomasi, 
 M. Cossi, N. Rega, J. M. Millam, M. Klene, J. E. Knox, J. B. Cross, 
 V. Bakken, C. Adamo, J. Jaramillo, R. Gomperts, R. E. Stratmann, 
 O. Yazyev, A. J. Austin, R. Cammi, C. Pomelli, J. W. Ochterski, 
 R. L. Martin, K. Morokuma, V. G. Zakrzewski, G. A. Voth, 
 P. Salvador, J. J. Dannenberg, S. Dapprich, A. D. Daniels, 
 O. Farkas, J. B. Foresman, J. V. Ortiz, J. Cioslowski, 
 and D. J. Fox, Gaussian, Inc., Wallingford CT, 2013.
 
 ******************************************
 Gaussian 09:  ES64L-G09RevD.01 24-Apr-2013
                26-Oct-2018 
 ******************************************
 %chk=nP_EB11Na_in.chk
 %mem=4GB
 ----------------------------------------------------------------------
 # bp86/gen opt=tight int=ultrafine guess=checkpoint geom=checkpoint no
 symm scf=(xqc,maxconventionalcycles=128) scrf=(solvent=n-Pentadecane)
 ----------------------------------------------------------------------
 1/7=10,14=-1,18=20,19=15,26=4,29=2,38=1/1,3;
 2/9=110,12=2,15=1,40=1/2;
 3/5=7,11=2,14=-4,16=1,25=1,30=1,70=2201,71=1,72=151,74=404,75=-5,116=-2/1,2,3;
 4/5=1/1;
 5/5=2,8=3,13=1,38=6,53=151,85=128/2,8;
 6/7=2,8=2,9=2,10=2,28=1/1;
 7/30=1/1,2,3,16;
 1/7=10,14=-1,18=20,19=15,26=4/3(2);
 2/9=110,15=1/2;
 99//99;
 2/9=110,15=1/2;
 3/5=7,6=1,11=2,14=-2,16=1,25=1,30=1,70=2205,71=1,72=151,74=404,75=-5,82=7/1,2,3;
 4/5=5,16=3,69=1/1;
 5/5=2,8=3,13=1,38=5,53=151,85=128/2,8;
 7/30=1/1,2,3,16;
 1/7=10,14=-1,18=20,19=15,26=4/3(-5);
 2/9=110,15=1/2;
 6/7=2,8=2,9=2,10=2,19=2,28=1/1;
 99/9=1/99;
 ------------
 EB21Na_nP_in
 ------------
 Structure from the checkpoint file:  "nP_EB11Na_in.chk"
 Charge =  1 Multiplicity = 1
 Redundant internal coordinates found in file.
 N,0,-3.0244072244,12.3766981078,12.3441466002
 C,0,-3.5928013159,13.6065495093,11.7542946958
 C,0,-2.7985378977,14.8102626459,12.3146164099
 O,0,-1.7948451416,14.6876220346,13.0187156708
 C,0,-3.3086469074,12.08021646,13.7621893472
 C,0,-5.1542924733,13.7144178435,11.8522641885
 C,0,-5.8344590851,12.3399853202,11.6968419147
 C,0,-5.707201036,14.6570664493,10.7602884029
 O,0,-3.2638935131,16.0027931466,11.8999249538
 C,0,-1.4184580763,10.4531074866,12.2133267098
 C,0,-1.9717154186,11.7992946099,11.6787223489
 O,0,-1.4875692521,12.2943259888,10.6357055119
 C,0,-2.0614317502,9.2032835129,11.5528943885
 C,0,-3.5961971146,9.1808383787,11.6677213733
 C,0,-1.4679339373,7.9128828925,12.1526557656
 C,0,-2.4716606914,17.184278113,12.2564313476
 O,0,0.002252908,10.362825879,11.8598728354
 O,0,-0.8737966308,16.3190629809,10.6492075505
 O,0,2.2948650233,13.7385563111,10.617734461
 O,0,1.4040229364,15.4192600613,12.9835959264
 O,0,0.4031767663,12.2749392413,13.0102599993
 N,0,3.0185777257,12.3871871747,12.3303911468
 N,0,0.0003211098,17.6312758223,12.3212232333
 C,0,2.2475065518,11.266759877,11.7510728296
 C,0,1.3352948123,17.5039753703,11.6990111809
 C,0,0.8022198251,11.3526127184,12.2973141474
 C,0,1.9924290022,16.216359101,12.2505902317
 C,0,3.418421875,12.3088718134,13.7497025422
 C,0,-0.0797018287,18.0415246338,13.7370968803
 C,0,2.9439559978,9.8676101255,11.8821897772
 C,0,2.2119472761,18.802218081,11.7712650814
 C,0,4.4725105594,9.9735301545,11.7126152776
 C,0,1.3566911699,20.0751770321,11.6161816433
 C,0,2.4043879327,8.8823554788,10.8219400569
 C,0,3.2880615715,18.8000543086,10.6629575942
 O,0,3.2419888844,16.0109437015,11.7964023669
 C,0,3.8772892157,14.7395934293,12.159775547
 C,0,2.9806468863,13.5803472649,11.6532123248
 C,0,-1.0396059104,16.9969691725,11.6887157213
 C,0,5.2722668821,14.7963770069,11.4798590442
 C,0,-3.2493783997,18.3736731899,11.6299043408
 C,0,6.0619549758,13.4815309299,11.608275305
 C,0,-2.5230221715,19.7217214732,11.7867126443
 C,0,6.0981839507,15.9673301762,12.048806334
 C,0,-4.6655252158,18.4655533488,12.233043379
 H,0,1.136419815,17.2945700811,10.6307569477
 H,0,2.7234107337,18.8351799621,12.7539245177
 H,0,3.9393596596,17.9158978516,10.7029324736
 H,0,2.8112137394,18.8294587799,9.6653852906
 H,0,3.9192140027,19.7005880431,10.7583509852
 H,0,2.0175174017,20.9595317457,11.6071133539
 H,0,0.8064323995,20.062253775,10.6575540097
 H,0,0.6274616395,20.2149308667,12.4299760301
 H,0,3.9740294738,14.71784266,13.2579463073
 H,0,5.0750501677,14.9797808637,10.4056812441
 H,0,7.0617598879,16.0414499834,11.5154871311
 H,0,5.5790249145,16.9336858344,11.9473849071
 H,0,6.3199882576,15.8057122435,13.1205637104
 H,0,6.3098813472,13.2572416545,12.6624365894
 H,0,5.5229762541,12.6195570478,11.1841717822
 H,0,7.0182621666,13.5780389634,11.0661931704
 H,0,4.4903560068,12.5245431729,13.8820761715
 H,0,2.8141733302,12.9987614566,14.3615337647
 H,0,3.2378151258,11.2855207778,14.1072716717
 H,0,2.1644475202,11.4994537037,10.6725626254
 H,0,2.7262609778,9.4526109557,12.8864774473
 H,0,2.8788929629,7.895235819,10.9593589996
 H,0,1.3146956046,8.7524072859,10.8761933988
 H,0,2.6565327445,9.2365345171,9.8048852062
 H,0,4.7282692349,10.4073348309,10.7284608802
 H,0,4.9602818247,10.5799062706,12.492267582
 H,0,4.9141495666,8.9624592287,11.7532812316
 H,0,-1.4925971816,10.4019184074,13.3123833413
 H,0,-1.7938410392,9.2603472235,10.479794326
 H,0,-0.3707113528,7.87484765,12.0617045399
 H,0,-1.7284533858,7.8218872355,13.2240228803
 H,0,-1.8823218383,7.0320322128,11.632285877
 H,0,-3.9233968807,9.0977450448,12.7208218155
 H,0,-4.0683524415,10.0715121008,11.2235896296
 H,0,-3.9872569819,8.2953666868,11.1379248546
 H,0,-2.4192371335,12.271123044,14.3855160956
 H,0,-4.116452925,12.7433451359,14.1025519019
 H,0,-3.6503153266,11.0419417689,13.8969487957
 H,0,-5.5116053085,14.2362552982,9.7561974978
 H,0,-6.8007800082,14.755078473,10.8743052429
 H,0,-5.2642399535,15.6619680327,10.8004107128
 H,0,-5.5689554463,11.6262051622,12.4928122079
 H,0,-6.9303248084,12.4720510881,11.7206645244
 H,0,-5.5772817314,11.8827941998,10.7238254158
 H,0,-5.4223373568,14.1323398835,12.8431247495
 H,0,-3.3271793507,13.5595215751,10.6810326632
 H,0,-2.4573987991,17.2577043592,13.3569427001
 H,0,-3.329919684,18.1449969536,10.5492577545
 H,0,-4.6161128922,18.6899831882,13.3152481016
 H,0,-5.2276527961,19.2819949964,11.7473904942
 H,0,-5.2381169222,17.5338556998,12.101215239
 H,0,-1.5076173164,19.7098806465,11.3593776946
 H,0,-3.0967296616,20.506286556,11.2642498885
 H,0,-2.4562420694,20.0241805954,12.8484390542
 H,0,0.9048886628,18.4189095354,14.0473926561
 H,0,-0.8084848614,18.8543060999,13.8804412584
 H,0,-0.337788055,17.1823743908,14.378298364
 Na,0,-0.008003761,14.1316130236,11.3525902614
 Recover connectivity data from disk.

 GradGradGradGradGradGradGradGradGradGradGradGradGradGradGradGradGradGrad
 Berny optimization.
 Initialization pass.
                           ----------------------------
                           !    Initial Parameters    !
                           ! (Angstroms and Degrees)  !
 --------------------------                            --------------------------
 ! Name  Definition              Value          Derivative Info.                !
 --------------------------------------------------------------------------------
 ! R1    R(1,2)                  1.4777         estimate D2E/DX2                !
 ! R2    R(1,5)                  1.4763         estimate D2E/DX2                !
 ! R3    R(1,11)                 1.3727         estimate D2E/DX2                !
 ! R4    R(2,3)                  1.5472         estimate D2E/DX2                !
 ! R5    R(2,6)                  1.5683         estimate D2E/DX2                !
 ! R6    R(2,91)                 1.1066         estimate D2E/DX2                !
 ! R7    R(3,4)                  1.2322         estimate D2E/DX2                !
 ! R8    R(3,9)                  1.3456         estimate D2E/DX2                !
 ! R9    R(4,103)                2.5056         estimate D2E/DX2                !
 ! R10   R(5,81)                 1.1027         estimate D2E/DX2                !
 ! R11   R(5,82)                 1.0992         estimate D2E/DX2                !
 ! R12   R(5,83)                 1.1013         estimate D2E/DX2                !
 ! R13   R(6,7)                  1.5414         estimate D2E/DX2                !
 ! R14   R(6,8)                  1.5449         estimate D2E/DX2                !
 ! R15   R(6,90)                 1.1083         estimate D2E/DX2                !
 ! R16   R(7,87)                 1.1016         estimate D2E/DX2                !
 ! R17   R(7,88)                 1.1041         estimate D2E/DX2                !
 ! R18   R(7,89)                 1.1054         estimate D2E/DX2                !
 ! R19   R(8,84)                 1.1061         estimate D2E/DX2                !
 ! R20   R(8,85)                 1.1039         estimate D2E/DX2                !
 ! R21   R(8,86)                 1.0989         estimate D2E/DX2                !
 ! R22   R(9,16)                 1.4665         estimate D2E/DX2                !
 ! R23   R(10,11)                1.5505         estimate D2E/DX2                !
 ! R24   R(10,13)                1.5529         estimate D2E/DX2                !
 ! R25   R(10,17)                1.4668         estimate D2E/DX2                !
 ! R26   R(10,73)                1.1027         estimate D2E/DX2                !
 ! R27   R(11,12)                1.2519         estimate D2E/DX2                !
 ! R28   R(12,103)               2.4655         estimate D2E/DX2                !
 ! R29   R(13,14)                1.5392         estimate D2E/DX2                !
 ! R30   R(13,15)                1.5418         estimate D2E/DX2                !
 ! R31   R(13,74)                1.1074         estimate D2E/DX2                !
 ! R32   R(14,78)                1.1059         estimate D2E/DX2                !
 ! R33   R(14,79)                1.1016         estimate D2E/DX2                !
 ! R34   R(14,80)                1.1035         estimate D2E/DX2                !
 ! R35   R(15,75)                1.1016         estimate D2E/DX2                !
 ! R36   R(15,76)                1.1063         estimate D2E/DX2                !
 ! R37   R(15,77)                1.1038         estimate D2E/DX2                !
 ! R38   R(16,39)                1.5518         estimate D2E/DX2                !
 ! R39   R(16,41)                1.5531         estimate D2E/DX2                !
 ! R40   R(16,92)                1.1031         estimate D2E/DX2                !
 ! R41   R(17,26)                1.3457         estimate D2E/DX2                !
 ! R42   R(18,39)                1.252          estimate D2E/DX2                !
 ! R43   R(18,103)               2.4555         estimate D2E/DX2                !
 ! R44   R(19,38)                1.252          estimate D2E/DX2                !
 ! R45   R(19,103)               2.449          estimate D2E/DX2                !
 ! R46   R(20,27)                1.2324         estimate D2E/DX2                !
 ! R47   R(20,103)               2.5124         estimate D2E/DX2                !
 ! R48   R(21,26)                1.2322         estimate D2E/DX2                !
 ! R49   R(22,24)                1.4783         estimate D2E/DX2                !
 ! R50   R(22,28)                1.4766         estimate D2E/DX2                !
 ! R51   R(22,38)                1.3725         estimate D2E/DX2                !
 ! R52   R(23,25)                1.4783         estimate D2E/DX2                !
 ! R53   R(23,29)                1.4763         estimate D2E/DX2                !
 ! R54   R(23,39)                1.3725         estimate D2E/DX2                !
 ! R55   R(24,26)                1.5475         estimate D2E/DX2                !
 ! R56   R(24,30)                1.5684         estimate D2E/DX2                !
 ! R57   R(24,65)                1.1064         estimate D2E/DX2                !
 ! R58   R(25,27)                1.5473         estimate D2E/DX2                !
 ! R59   R(25,31)                1.5682         estimate D2E/DX2                !
 ! R60   R(25,46)                1.1066         estimate D2E/DX2                !
 ! R61   R(27,36)                1.3453         estimate D2E/DX2                !
 ! R62   R(28,62)                1.1014         estimate D2E/DX2                !
 ! R63   R(28,63)                1.1025         estimate D2E/DX2                !
 ! R64   R(28,64)                1.099          estimate D2E/DX2                !
 ! R65   R(29,100)               1.0991         estimate D2E/DX2                !
 ! R66   R(29,101)               1.101          estimate D2E/DX2                !
 ! R67   R(29,102)               1.1027         estimate D2E/DX2                !
 ! R68   R(30,32)                1.5416         estimate D2E/DX2                !
 ! R69   R(30,34)                1.5447         estimate D2E/DX2                !
 ! R70   R(30,66)                1.1082         estimate D2E/DX2                !
 ! R71   R(31,33)                1.5414         estimate D2E/DX2                !
 ! R72   R(31,35)                1.5448         estimate D2E/DX2                !
 ! R73   R(31,47)                1.1083         estimate D2E/DX2                !
 ! R74   R(32,70)                1.1055         estimate D2E/DX2                !
 ! R75   R(32,71)                1.1016         estimate D2E/DX2                !
 ! R76   R(32,72)                1.1041         estimate D2E/DX2                !
 ! R77   R(33,51)                1.104          estimate D2E/DX2                !
 ! R78   R(33,52)                1.1054         estimate D2E/DX2                !
 ! R79   R(33,53)                1.1016         estimate D2E/DX2                !
 ! R80   R(34,67)                1.1038         estimate D2E/DX2                !
 ! R81   R(34,68)                1.0988         estimate D2E/DX2                !
 ! R82   R(34,69)                1.1061         estimate D2E/DX2                !
 ! R83   R(35,48)                1.0989         estimate D2E/DX2                !
 ! R84   R(35,49)                1.1061         estimate D2E/DX2                !
 ! R85   R(35,50)                1.1038         estimate D2E/DX2                !
 ! R86   R(36,37)                1.467          estimate D2E/DX2                !
 ! R87   R(37,38)                1.5506         estimate D2E/DX2                !
 ! R88   R(37,40)                1.5529         estimate D2E/DX2                !
 ! R89   R(37,54)                1.1026         estimate D2E/DX2                !
 ! R90   R(40,42)                1.5391         estimate D2E/DX2                !
 ! R91   R(40,44)                1.5417         estimate D2E/DX2                !
 ! R92   R(40,55)                1.1074         estimate D2E/DX2                !
 ! R93   R(41,43)                1.5393         estimate D2E/DX2                !
 ! R94   R(41,45)                1.542          estimate D2E/DX2                !
 ! R95   R(41,93)                1.1075         estimate D2E/DX2                !
 ! R96   R(42,59)                1.1059         estimate D2E/DX2                !
 ! R97   R(42,60)                1.1015         estimate D2E/DX2                !
 ! R98   R(42,61)                1.1035         estimate D2E/DX2                !
 ! R99   R(43,97)                1.1017         estimate D2E/DX2                !
 ! R100  R(43,98)                1.1035         estimate D2E/DX2                !
 ! R101  R(43,99)                1.106          estimate D2E/DX2                !
 ! R102  R(44,56)                1.1038         estimate D2E/DX2                !
 ! R103  R(44,57)                1.1017         estimate D2E/DX2                !
 ! R104  R(44,58)                1.1063         estimate D2E/DX2                !
 ! R105  R(45,94)                1.1063         estimate D2E/DX2                !
 ! R106  R(45,95)                1.1038         estimate D2E/DX2                !
 ! R107  R(45,96)                1.1015         estimate D2E/DX2                !
 ! A1    A(2,1,5)              118.4571         estimate D2E/DX2                !
 ! A2    A(2,1,11)             116.844          estimate D2E/DX2                !
 ! A3    A(5,1,11)             121.9236         estimate D2E/DX2                !
 ! A4    A(1,2,3)              107.7879         estimate D2E/DX2                !
 ! A5    A(1,2,6)              114.5382         estimate D2E/DX2                !
 ! A6    A(1,2,91)             105.0368         estimate D2E/DX2                !
 ! A7    A(3,2,6)              115.7858         estimate D2E/DX2                !
 ! A8    A(3,2,91)             105.1339         estimate D2E/DX2                !
 ! A9    A(6,2,91)             107.6075         estimate D2E/DX2                !
 ! A10   A(2,3,4)              123.2089         estimate D2E/DX2                !
 ! A11   A(2,3,9)              113.6003         estimate D2E/DX2                !
 ! A12   A(4,3,9)              123.095          estimate D2E/DX2                !
 ! A13   A(3,4,103)            102.8863         estimate D2E/DX2                !
 ! A14   A(1,5,81)             110.6639         estimate D2E/DX2                !
 ! A15   A(1,5,82)             108.5283         estimate D2E/DX2                !
 ! A16   A(1,5,83)             111.5053         estimate D2E/DX2                !
 ! A17   A(81,5,82)            108.2569         estimate D2E/DX2                !
 ! A18   A(81,5,83)            110.1368         estimate D2E/DX2                !
 ! A19   A(82,5,83)            107.6306         estimate D2E/DX2                !
 ! A20   A(2,6,7)              111.8225         estimate D2E/DX2                !
 ! A21   A(2,6,8)              110.7419         estimate D2E/DX2                !
 ! A22   A(2,6,90)             108.8199         estimate D2E/DX2                !
 ! A23   A(7,6,8)              108.3537         estimate D2E/DX2                !
 ! A24   A(7,6,90)             108.643          estimate D2E/DX2                !
 ! A25   A(8,6,90)             108.3783         estimate D2E/DX2                !
 ! A26   A(6,7,87)             113.4879         estimate D2E/DX2                !
 ! A27   A(6,7,88)             109.2178         estimate D2E/DX2                !
 ! A28   A(6,7,89)             110.7868         estimate D2E/DX2                !
 ! A29   A(87,7,88)            107.5263         estimate D2E/DX2                !
 ! A30   A(87,7,89)            108.1771         estimate D2E/DX2                !
 ! A31   A(88,7,89)            107.4213         estimate D2E/DX2                !
 ! A32   A(6,8,84)             110.2554         estimate D2E/DX2                !
 ! A33   A(6,8,85)             109.6168         estimate D2E/DX2                !
 ! A34   A(6,8,86)             112.8234         estimate D2E/DX2                !
 ! A35   A(84,8,85)            107.6209         estimate D2E/DX2                !
 ! A36   A(84,8,86)            108.044          estimate D2E/DX2                !
 ! A37   A(85,8,86)            108.3224         estimate D2E/DX2                !
 ! A38   A(3,9,16)             116.8883         estimate D2E/DX2                !
 ! A39   A(11,10,13)           113.8523         estimate D2E/DX2                !
 ! A40   A(11,10,17)           108.419          estimate D2E/DX2                !
 ! A41   A(11,10,73)           111.0971         estimate D2E/DX2                !
 ! A42   A(13,10,17)           104.419          estimate D2E/DX2                !
 ! A43   A(13,10,73)           111.0179         estimate D2E/DX2                !
 ! A44   A(17,10,73)           107.6034         estimate D2E/DX2                !
 ! A45   A(1,11,10)            118.1443         estimate D2E/DX2                !
 ! A46   A(1,11,12)            122.2828         estimate D2E/DX2                !
 ! A47   A(10,11,12)           119.5095         estimate D2E/DX2                !
 ! A48   A(11,12,103)          106.5284         estimate D2E/DX2                !
 ! A49   A(10,13,14)           113.1317         estimate D2E/DX2                !
 ! A50   A(10,13,15)           110.4123         estimate D2E/DX2                !
 ! A51   A(10,13,74)           105.6987         estimate D2E/DX2                !
 ! A52   A(14,13,15)           110.0356         estimate D2E/DX2                !
 ! A53   A(14,13,74)           108.2988         estimate D2E/DX2                !
 ! A54   A(15,13,74)           109.0903         estimate D2E/DX2                !
 ! A55   A(13,14,78)           111.54           estimate D2E/DX2                !
 ! A56   A(13,14,79)           112.6753         estimate D2E/DX2                !
 ! A57   A(13,14,80)           109.223          estimate D2E/DX2                !
 ! A58   A(78,14,79)           108.5341         estimate D2E/DX2                !
 ! A59   A(78,14,80)           106.9808         estimate D2E/DX2                !
 ! A60   A(79,14,80)           107.658          estimate D2E/DX2                !
 ! A61   A(13,15,75)           112.3448         estimate D2E/DX2                !
 ! A62   A(13,15,76)           110.7875         estimate D2E/DX2                !
 ! A63   A(13,15,77)           109.8765         estimate D2E/DX2                !
 ! A64   A(75,15,76)           108.1584         estimate D2E/DX2                !
 ! A65   A(75,15,77)           107.9048         estimate D2E/DX2                !
 ! A66   A(76,15,77)           107.6073         estimate D2E/DX2                !
 ! A67   A(9,16,39)            108.2006         estimate D2E/DX2                !
 ! A68   A(9,16,41)            104.383          estimate D2E/DX2                !
 ! A69   A(9,16,92)            107.6471         estimate D2E/DX2                !
 ! A70   A(39,16,41)           114.0144         estimate D2E/DX2                !
 ! A71   A(39,16,92)           111.1676         estimate D2E/DX2                !
 ! A72   A(41,16,92)           110.9761         estimate D2E/DX2                !
 ! A73   A(10,17,26)           116.8831         estimate D2E/DX2                !
 ! A74   A(39,18,103)          106.9302         estimate D2E/DX2                !
 ! A75   A(38,19,103)          106.6886         estimate D2E/DX2                !
 ! A76   A(27,20,103)          102.3394         estimate D2E/DX2                !
 ! A77   A(24,22,28)           118.5348         estimate D2E/DX2                !
 ! A78   A(24,22,38)           116.8152         estimate D2E/DX2                !
 ! A79   A(28,22,38)           121.8598         estimate D2E/DX2                !
 ! A80   A(25,23,29)           118.4597         estimate D2E/DX2                !
 ! A81   A(25,23,39)           116.7717         estimate D2E/DX2                !
 ! A82   A(29,23,39)           121.9602         estimate D2E/DX2                !
 ! A83   A(22,24,26)           107.8644         estimate D2E/DX2                !
 ! A84   A(22,24,30)           114.3142         estimate D2E/DX2                !
 ! A85   A(22,24,65)           105.1732         estimate D2E/DX2                !
 ! A86   A(26,24,30)           115.7675         estimate D2E/DX2                !
 ! A87   A(26,24,65)           105.2066         estimate D2E/DX2                !
 ! A88   A(30,24,65)           107.604          estimate D2E/DX2                !
 ! A89   A(23,25,27)           107.7665         estimate D2E/DX2                !
 ! A90   A(23,25,31)           114.4646         estimate D2E/DX2                !
 ! A91   A(23,25,46)           105.0882         estimate D2E/DX2                !
 ! A92   A(27,25,31)           115.7914         estimate D2E/DX2                !
 ! A93   A(27,25,46)           105.2471         estimate D2E/DX2                !
 ! A94   A(31,25,46)           107.554          estimate D2E/DX2                !
 ! A95   A(17,26,21)           123.1016         estimate D2E/DX2                !
 ! A96   A(17,26,24)           113.5565         estimate D2E/DX2                !
 ! A97   A(21,26,24)           123.2473         estimate D2E/DX2                !
 ! A98   A(20,27,25)           123.195          estimate D2E/DX2                !
 ! A99   A(20,27,36)           123.0584         estimate D2E/DX2                !
 ! A100  A(25,27,36)           113.6527         estimate D2E/DX2                !
 ! A101  A(22,28,62)           111.6338         estimate D2E/DX2                !
 ! A102  A(22,28,63)           110.599          estimate D2E/DX2                !
 ! A103  A(22,28,64)           108.5193         estimate D2E/DX2                !
 ! A104  A(62,28,63)           110.1326         estimate D2E/DX2                !
 ! A105  A(62,28,64)           107.6489         estimate D2E/DX2                !
 ! A106  A(63,28,64)           108.1843         estimate D2E/DX2                !
 ! A107  A(23,29,100)          108.5185         estimate D2E/DX2                !
 ! A108  A(23,29,101)          111.4618         estimate D2E/DX2                !
 ! A109  A(23,29,102)          110.7242         estimate D2E/DX2                !
 ! A110  A(100,29,101)         107.6205         estimate D2E/DX2                !
 ! A111  A(100,29,102)         108.2412         estimate D2E/DX2                !
 ! A112  A(101,29,102)         110.1537         estimate D2E/DX2                !
 ! A113  A(24,30,32)           111.704          estimate D2E/DX2                !
 ! A114  A(24,30,34)           110.8866         estimate D2E/DX2                !
 ! A115  A(24,30,66)           108.8195         estimate D2E/DX2                !
 ! A116  A(32,30,34)           108.3416         estimate D2E/DX2                !
 ! A117  A(32,30,66)           108.6741         estimate D2E/DX2                !
 ! A118  A(34,30,66)           108.3332         estimate D2E/DX2                !
 ! A119  A(25,31,33)           111.6462         estimate D2E/DX2                !
 ! A120  A(25,31,35)           110.8062         estimate D2E/DX2                !
 ! A121  A(25,31,47)           108.8723         estimate D2E/DX2                !
 ! A122  A(33,31,35)           108.3904         estimate D2E/DX2                !
 ! A123  A(33,31,47)           108.7056         estimate D2E/DX2                !
 ! A124  A(35,31,47)           108.342          estimate D2E/DX2                !
 ! A125  A(30,32,70)           110.7494         estimate D2E/DX2                !
 ! A126  A(30,32,71)           113.517          estimate D2E/DX2                !
 ! A127  A(30,32,72)           109.2481         estimate D2E/DX2                !
 ! A128  A(70,32,71)           108.1571         estimate D2E/DX2                !
 ! A129  A(70,32,72)           107.4334         estimate D2E/DX2                !
 ! A130  A(71,32,72)           107.512          estimate D2E/DX2                !
 ! A131  A(31,33,51)           109.2831         estimate D2E/DX2                !
 ! A132  A(31,33,52)           110.7198         estimate D2E/DX2                !
 ! A133  A(31,33,53)           113.4367         estimate D2E/DX2                !
 ! A134  A(51,33,52)           107.4697         estimate D2E/DX2                !
 ! A135  A(51,33,53)           107.498          estimate D2E/DX2                !
 ! A136  A(52,33,53)           108.2161         estimate D2E/DX2                !
 ! A137  A(30,34,67)           109.5599         estimate D2E/DX2                !
 ! A138  A(30,34,68)           112.8285         estimate D2E/DX2                !
 ! A139  A(30,34,69)           110.3206         estimate D2E/DX2                !
 ! A140  A(67,34,68)           108.3255         estimate D2E/DX2                !
 ! A141  A(67,34,69)           107.6277         estimate D2E/DX2                !
 ! A142  A(68,34,69)           108.0204         estimate D2E/DX2                !
 ! A143  A(31,35,48)           112.8243         estimate D2E/DX2                !
 ! A144  A(31,35,49)           110.2864         estimate D2E/DX2                !
 ! A145  A(31,35,50)           109.5828         estimate D2E/DX2                !
 ! A146  A(48,35,49)           108.0425         estimate D2E/DX2                !
 ! A147  A(48,35,50)           108.3235         estimate D2E/DX2                !
 ! A148  A(49,35,50)           107.6237         estimate D2E/DX2                !
 ! A149  A(27,36,37)           116.8046         estimate D2E/DX2                !
 ! A150  A(36,37,38)           108.4555         estimate D2E/DX2                !
 ! A151  A(36,37,40)           104.4117         estimate D2E/DX2                !
 ! A152  A(36,37,54)           107.5653         estimate D2E/DX2                !
 ! A153  A(38,37,40)           113.8126         estimate D2E/DX2                !
 ! A154  A(38,37,54)           111.1829         estimate D2E/DX2                !
 ! A155  A(40,37,54)           110.9758         estimate D2E/DX2                !
 ! A156  A(19,38,22)           122.2127         estimate D2E/DX2                !
 ! A157  A(19,38,37)           119.5014         estimate D2E/DX2                !
 ! A158  A(22,38,37)           118.214          estimate D2E/DX2                !
 ! A159  A(16,39,18)           119.4258         estimate D2E/DX2                !
 ! A160  A(16,39,23)           118.3476         estimate D2E/DX2                !
 ! A161  A(18,39,23)           122.1735         estimate D2E/DX2                !
 ! A162  A(37,40,42)           113.1495         estimate D2E/DX2                !
 ! A163  A(37,40,44)           110.3299         estimate D2E/DX2                !
 ! A164  A(37,40,55)           105.7103         estimate D2E/DX2                !
 ! A165  A(42,40,44)           110.0707         estimate D2E/DX2                !
 ! A166  A(42,40,55)           108.2872         estimate D2E/DX2                !
 ! A167  A(44,40,55)           109.1212         estimate D2E/DX2                !
 ! A168  A(16,41,43)           113.1595         estimate D2E/DX2                !
 ! A169  A(16,41,45)           110.3489         estimate D2E/DX2                !
 ! A170  A(16,41,93)           105.7783         estimate D2E/DX2                !
 ! A171  A(43,41,45)           109.9586         estimate D2E/DX2                !
 ! A172  A(43,41,93)           108.3331         estimate D2E/DX2                !
 ! A173  A(45,41,93)           109.0973         estimate D2E/DX2                !
 ! A174  A(40,42,59)           111.5806         estimate D2E/DX2                !
 ! A175  A(40,42,60)           112.6639         estimate D2E/DX2                !
 ! A176  A(40,42,61)           109.2046         estimate D2E/DX2                !
 ! A177  A(59,42,60)           108.5413         estimate D2E/DX2                !
 ! A178  A(59,42,61)           106.9605         estimate D2E/DX2                !
 ! A179  A(60,42,61)           107.6584         estimate D2E/DX2                !
 ! A180  A(41,43,97)           112.7046         estimate D2E/DX2                !
 ! A181  A(41,43,98)           109.2139         estimate D2E/DX2                !
 ! A182  A(41,43,99)           111.4558         estimate D2E/DX2                !
 ! A183  A(97,43,98)           107.648          estimate D2E/DX2                !
 ! A184  A(97,43,99)           108.6414         estimate D2E/DX2                !
 ! A185  A(98,43,99)           106.9464         estimate D2E/DX2                !
 ! A186  A(40,44,56)           109.8978         estimate D2E/DX2                !
 ! A187  A(40,44,57)           112.3209         estimate D2E/DX2                !
 ! A188  A(40,44,58)           110.7288         estimate D2E/DX2                !
 ! A189  A(56,44,57)           107.9386         estimate D2E/DX2                !
 ! A190  A(56,44,58)           107.6291         estimate D2E/DX2                !
 ! A191  A(57,44,58)           108.1681         estimate D2E/DX2                !
 ! A192  A(41,45,94)           110.7128         estimate D2E/DX2                !
 ! A193  A(41,45,95)           109.8572         estimate D2E/DX2                !
 ! A194  A(41,45,96)           112.3459         estimate D2E/DX2                !
 ! A195  A(94,45,95)           107.6426         estimate D2E/DX2                !
 ! A196  A(94,45,96)           108.1722         estimate D2E/DX2                !
 ! A197  A(95,45,96)           107.9536         estimate D2E/DX2                !
 ! A198  A(4,103,12)            86.0292         estimate D2E/DX2                !
 ! A199  A(4,103,18)            75.0096         estimate D2E/DX2                !
 ! A200  A(4,103,19)           154.922          estimate D2E/DX2                !
 ! A201  A(4,103,20)            81.6851         estimate D2E/DX2                !
 ! A202  A(12,103,18)          111.6523         estimate D2E/DX2                !
 ! A203  A(12,103,19)          110.9435         estimate D2E/DX2                !
 ! A204  A(12,103,20)          155.2266         estimate D2E/DX2                !
 ! A205  A(18,103,19)          112.8662         estimate D2E/DX2                !
 ! A206  A(18,103,20)           85.8455         estimate D2E/DX2                !
 ! A207  A(19,103,20)           75.4376         estimate D2E/DX2                !
 ! D1    D(5,1,2,3)             73.4582         estimate D2E/DX2                !
 ! D2    D(5,1,2,6)            -56.9835         estimate D2E/DX2                !
 ! D3    D(5,1,2,91)          -174.8205         estimate D2E/DX2                !
 ! D4    D(11,1,2,3)           -88.0558         estimate D2E/DX2                !
 ! D5    D(11,1,2,6)           141.5025         estimate D2E/DX2                !
 ! D6    D(11,1,2,91)           23.6655         estimate D2E/DX2                !
 ! D7    D(2,1,5,81)          -105.7753         estimate D2E/DX2                !
 ! D8    D(2,1,5,82)            12.8789         estimate D2E/DX2                !
 ! D9    D(2,1,5,83)           131.2637         estimate D2E/DX2                !
 ! D10   D(11,1,5,81)           54.7544         estimate D2E/DX2                !
 ! D11   D(11,1,5,82)          173.4086         estimate D2E/DX2                !
 ! D12   D(11,1,5,83)          -68.2066         estimate D2E/DX2                !
 ! D13   D(2,1,11,10)         -175.6617         estimate D2E/DX2                !
 ! D14   D(2,1,11,12)            1.4263         estimate D2E/DX2                !
 ! D15   D(5,1,11,10)           23.5122         estimate D2E/DX2                !
 ! D16   D(5,1,11,12)         -159.3997         estimate D2E/DX2                !
 ! D17   D(1,2,3,4)              6.4774         estimate D2E/DX2                !
 ! D18   D(1,2,3,9)           -176.9851         estimate D2E/DX2                !
 ! D19   D(6,2,3,4)            136.2229         estimate D2E/DX2                !
 ! D20   D(6,2,3,9)            -47.2396         estimate D2E/DX2                !
 ! D21   D(91,2,3,4)          -105.1781         estimate D2E/DX2                !
 ! D22   D(91,2,3,9)            71.3594         estimate D2E/DX2                !
 ! D23   D(1,2,6,7)            -35.6147         estimate D2E/DX2                !
 ! D24   D(1,2,6,8)           -156.568          estimate D2E/DX2                !
 ! D25   D(1,2,6,90)            84.403          estimate D2E/DX2                !
 ! D26   D(3,2,6,7)           -162.0216         estimate D2E/DX2                !
 ! D27   D(3,2,6,8)             77.025          estimate D2E/DX2                !
 ! D28   D(3,2,6,90)           -42.0039         estimate D2E/DX2                !
 ! D29   D(91,2,6,7)            80.7511         estimate D2E/DX2                !
 ! D30   D(91,2,6,8)           -40.2022         estimate D2E/DX2                !
 ! D31   D(91,2,6,90)         -159.2312         estimate D2E/DX2                !
 ! D32   D(2,3,4,103)           78.0045         estimate D2E/DX2                !
 ! D33   D(9,3,4,103)          -98.2077         estimate D2E/DX2                !
 ! D34   D(2,3,9,16)          -172.9473         estimate D2E/DX2                !
 ! D35   D(4,3,9,16)             3.5947         estimate D2E/DX2                !
 ! D36   D(3,4,103,12)         -54.4521         estimate D2E/DX2                !
 ! D37   D(3,4,103,18)          59.2185         estimate D2E/DX2                !
 ! D38   D(3,4,103,19)         171.359          estimate D2E/DX2                !
 ! D39   D(3,4,103,20)         147.1175         estimate D2E/DX2                !
 ! D40   D(2,6,7,87)            62.923          estimate D2E/DX2                !
 ! D41   D(2,6,7,88)          -177.1294         estimate D2E/DX2                !
 ! D42   D(2,6,7,89)           -59.0            estimate D2E/DX2                !
 ! D43   D(8,6,7,87)          -174.7474         estimate D2E/DX2                !
 ! D44   D(8,6,7,88)           -54.7999         estimate D2E/DX2                !
 ! D45   D(8,6,7,89)            63.3295         estimate D2E/DX2                !
 ! D46   D(90,6,7,87)          -57.1983         estimate D2E/DX2                !
 ! D47   D(90,6,7,88)           62.7493         estimate D2E/DX2                !
 ! D48   D(90,6,7,89)         -179.1213         estimate D2E/DX2                !
 ! D49   D(2,6,8,84)            64.222          estimate D2E/DX2                !
 ! D50   D(2,6,8,85)          -177.4784         estimate D2E/DX2                !
 ! D51   D(2,6,8,86)           -56.6762         estimate D2E/DX2                !
 ! D52   D(7,6,8,84)           -58.7643         estimate D2E/DX2                !
 ! D53   D(7,6,8,85)            59.5353         estimate D2E/DX2                !
 ! D54   D(7,6,8,86)          -179.6624         estimate D2E/DX2                !
 ! D55   D(90,6,8,84)         -176.4827         estimate D2E/DX2                !
 ! D56   D(90,6,8,85)          -58.1831         estimate D2E/DX2                !
 ! D57   D(90,6,8,86)           62.6192         estimate D2E/DX2                !
 ! D58   D(3,9,16,39)           57.5488         estimate D2E/DX2                !
 ! D59   D(3,9,16,41)          179.3233         estimate D2E/DX2                !
 ! D60   D(3,9,16,92)          -62.682          estimate D2E/DX2                !
 ! D61   D(13,10,11,1)          92.5888         estimate D2E/DX2                !
 ! D62   D(13,10,11,12)        -84.5825         estimate D2E/DX2                !
 ! D63   D(17,10,11,1)        -151.6763         estimate D2E/DX2                !
 ! D64   D(17,10,11,12)         31.1524         estimate D2E/DX2                !
 ! D65   D(73,10,11,1)         -33.6329         estimate D2E/DX2                !
 ! D66   D(73,10,11,12)        149.1958         estimate D2E/DX2                !
 ! D67   D(11,10,13,14)        -55.5097         estimate D2E/DX2                !
 ! D68   D(11,10,13,15)       -179.3233         estimate D2E/DX2                !
 ! D69   D(11,10,13,74)         62.8313         estimate D2E/DX2                !
 ! D70   D(17,10,13,14)       -173.569          estimate D2E/DX2                !
 ! D71   D(17,10,13,15)         62.6174         estimate D2E/DX2                !
 ! D72   D(17,10,13,74)        -55.228          estimate D2E/DX2                !
 ! D73   D(73,10,13,14)         70.7535         estimate D2E/DX2                !
 ! D74   D(73,10,13,15)        -53.0601         estimate D2E/DX2                !
 ! D75   D(73,10,13,74)       -170.9055         estimate D2E/DX2                !
 ! D76   D(11,10,17,26)         57.2932         estimate D2E/DX2                !
 ! D77   D(13,10,17,26)        179.0085         estimate D2E/DX2                !
 ! D78   D(73,10,17,26)        -62.951          estimate D2E/DX2                !
 ! D79   D(1,11,12,103)         79.6119         estimate D2E/DX2                !
 ! D80   D(10,11,12,103)      -103.3385         estimate D2E/DX2                !
 ! D81   D(11,12,103,4)        -40.9495         estimate D2E/DX2                !
 ! D82   D(11,12,103,18)      -113.0998         estimate D2E/DX2                !
 ! D83   D(11,12,103,19)       120.0595         estimate D2E/DX2                !
 ! D84   D(11,12,103,20)        19.2913         estimate D2E/DX2                !
 ! D85   D(10,13,14,78)        -64.6492         estimate D2E/DX2                !
 ! D86   D(10,13,14,79)         57.7134         estimate D2E/DX2                !
 ! D87   D(10,13,14,80)        177.3067         estimate D2E/DX2                !
 ! D88   D(15,13,14,78)         59.3708         estimate D2E/DX2                !
 ! D89   D(15,13,14,79)       -178.2666         estimate D2E/DX2                !
 ! D90   D(15,13,14,80)        -58.6734         estimate D2E/DX2                !
 ! D91   D(74,13,14,78)        178.5317         estimate D2E/DX2                !
 ! D92   D(74,13,14,79)        -59.1056         estimate D2E/DX2                !
 ! D93   D(74,13,14,80)         60.4876         estimate D2E/DX2                !
 ! D94   D(10,13,15,75)        -56.2115         estimate D2E/DX2                !
 ! D95   D(10,13,15,76)         64.8826         estimate D2E/DX2                !
 ! D96   D(10,13,15,77)       -176.3476         estimate D2E/DX2                !
 ! D97   D(14,13,15,75)        178.2056         estimate D2E/DX2                !
 ! D98   D(14,13,15,76)        -60.7003         estimate D2E/DX2                !
 ! D99   D(14,13,15,77)         58.0695         estimate D2E/DX2                !
 ! D100  D(74,13,15,75)         59.5295         estimate D2E/DX2                !
 ! D101  D(74,13,15,76)       -179.3764         estimate D2E/DX2                !
 ! D102  D(74,13,15,77)        -60.6066         estimate D2E/DX2                !
 ! D103  D(9,16,39,18)          29.5272         estimate D2E/DX2                !
 ! D104  D(9,16,39,23)        -153.0637         estimate D2E/DX2                !
 ! D105  D(41,16,39,18)        -86.115          estimate D2E/DX2                !
 ! D106  D(41,16,39,23)         91.2941         estimate D2E/DX2                !
 ! D107  D(92,16,39,18)        147.5308         estimate D2E/DX2                !
 ! D108  D(92,16,39,23)        -35.0601         estimate D2E/DX2                !
 ! D109  D(9,16,41,43)        -175.2514         estimate D2E/DX2                !
 ! D110  D(9,16,41,45)          61.0639         estimate D2E/DX2                !
 ! D111  D(9,16,41,93)         -56.8025         estimate D2E/DX2                !
 ! D112  D(39,16,41,43)        -57.395          estimate D2E/DX2                !
 ! D113  D(39,16,41,45)        178.9204         estimate D2E/DX2                !
 ! D114  D(39,16,41,93)         61.054          estimate D2E/DX2                !
 ! D115  D(92,16,41,43)         69.0593         estimate D2E/DX2                !
 ! D116  D(92,16,41,45)        -54.6254         estimate D2E/DX2                !
 ! D117  D(92,16,41,93)       -172.4918         estimate D2E/DX2                !
 ! D118  D(10,17,26,21)          3.0344         estimate D2E/DX2                !
 ! D119  D(10,17,26,24)       -173.5303         estimate D2E/DX2                !
 ! D120  D(103,18,39,16)      -102.8313         estimate D2E/DX2                !
 ! D121  D(103,18,39,23)        79.8626         estimate D2E/DX2                !
 ! D122  D(39,18,103,4)         41.571          estimate D2E/DX2                !
 ! D123  D(39,18,103,12)       121.0013         estimate D2E/DX2                !
 ! D124  D(39,18,103,19)      -113.2099         estimate D2E/DX2                !
 ! D125  D(39,18,103,20)       -40.9217         estimate D2E/DX2                !
 ! D126  D(103,19,38,22)        80.367          estimate D2E/DX2                !
 ! D127  D(103,19,38,37)      -102.7725         estimate D2E/DX2                !
 ! D128  D(38,19,103,4)         15.4128         estimate D2E/DX2                !
 ! D129  D(38,19,103,12)      -114.5977         estimate D2E/DX2                !
 ! D130  D(38,19,103,18)       119.2329         estimate D2E/DX2                !
 ! D131  D(38,19,103,20)        40.2317         estimate D2E/DX2                !
 ! D132  D(103,20,27,25)        78.6695         estimate D2E/DX2                !
 ! D133  D(103,20,27,36)       -97.5816         estimate D2E/DX2                !
 ! D134  D(27,20,103,4)       -130.1566         estimate D2E/DX2                !
 ! D135  D(27,20,103,12)       168.7706         estimate D2E/DX2                !
 ! D136  D(27,20,103,18)       -54.7216         estimate D2E/DX2                !
 ! D137  D(27,20,103,19)        60.2017         estimate D2E/DX2                !
 ! D138  D(28,22,24,26)         74.0353         estimate D2E/DX2                !
 ! D139  D(28,22,24,30)        -56.267          estimate D2E/DX2                !
 ! D140  D(28,22,24,65)       -174.0671         estimate D2E/DX2                !
 ! D141  D(38,22,24,26)        -87.4183         estimate D2E/DX2                !
 ! D142  D(38,22,24,30)        142.2794         estimate D2E/DX2                !
 ! D143  D(38,22,24,65)         24.4793         estimate D2E/DX2                !
 ! D144  D(24,22,28,62)        130.1914         estimate D2E/DX2                !
 ! D145  D(24,22,28,63)       -106.8088         estimate D2E/DX2                !
 ! D146  D(24,22,28,64)         11.7132         estimate D2E/DX2                !
 ! D147  D(38,22,28,62)        -69.3339         estimate D2E/DX2                !
 ! D148  D(38,22,28,63)         53.6659         estimate D2E/DX2                !
 ! D149  D(38,22,28,64)        172.188          estimate D2E/DX2                !
 ! D150  D(24,22,38,19)          2.2953         estimate D2E/DX2                !
 ! D151  D(24,22,38,37)       -174.6038         estimate D2E/DX2                !
 ! D152  D(28,22,38,19)       -158.4964         estimate D2E/DX2                !
 ! D153  D(28,22,38,37)         24.6044         estimate D2E/DX2                !
 ! D154  D(29,23,25,27)         73.8391         estimate D2E/DX2                !
 ! D155  D(29,23,25,31)        -56.5321         estimate D2E/DX2                !
 ! D156  D(29,23,25,46)       -174.2973         estimate D2E/DX2                !
 ! D157  D(39,23,25,27)        -87.5754         estimate D2E/DX2                !
 ! D158  D(39,23,25,31)        142.0533         estimate D2E/DX2                !
 ! D159  D(39,23,25,46)         24.2882         estimate D2E/DX2                !
 ! D160  D(25,23,29,100)        13.1187         estimate D2E/DX2                !
 ! D161  D(25,23,29,101)       131.4593         estimate D2E/DX2                !
 ! D162  D(25,23,29,102)      -105.5457         estimate D2E/DX2                !
 ! D163  D(39,23,29,100)       173.5222         estimate D2E/DX2                !
 ! D164  D(39,23,29,101)       -68.1373         estimate D2E/DX2                !
 ! D165  D(39,23,29,102)        54.8577         estimate D2E/DX2                !
 ! D166  D(25,23,39,16)       -175.9821         estimate D2E/DX2                !
 ! D167  D(25,23,39,18)          1.3518         estimate D2E/DX2                !
 ! D168  D(29,23,39,16)         23.3028         estimate D2E/DX2                !
 ! D169  D(29,23,39,18)       -159.3633         estimate D2E/DX2                !
 ! D170  D(22,24,26,17)       -178.7524         estimate D2E/DX2                !
 ! D171  D(22,24,26,21)          4.6886         estimate D2E/DX2                !
 ! D172  D(30,24,26,17)        -49.2622         estimate D2E/DX2                !
 ! D173  D(30,24,26,21)        134.1788         estimate D2E/DX2                !
 ! D174  D(65,24,26,17)         69.3727         estimate D2E/DX2                !
 ! D175  D(65,24,26,21)       -107.1864         estimate D2E/DX2                !
 ! D176  D(22,24,30,32)        -36.7515         estimate D2E/DX2                !
 ! D177  D(22,24,30,34)       -157.7089         estimate D2E/DX2                !
 ! D178  D(22,24,30,66)         83.2307         estimate D2E/DX2                !
 ! D179  D(26,24,30,32)       -163.0429         estimate D2E/DX2                !
 ! D180  D(26,24,30,34)         75.9997         estimate D2E/DX2                !
 ! D181  D(26,24,30,66)        -43.0607         estimate D2E/DX2                !
 ! D182  D(65,24,30,32)         79.6515         estimate D2E/DX2                !
 ! D183  D(65,24,30,34)        -41.3059         estimate D2E/DX2                !
 ! D184  D(65,24,30,66)       -160.3663         estimate D2E/DX2                !
 ! D185  D(23,25,27,20)          5.7972         estimate D2E/DX2                !
 ! D186  D(23,25,27,36)       -177.6327         estimate D2E/DX2                !
 ! D187  D(31,25,27,20)        135.4268         estimate D2E/DX2                !
 ! D188  D(31,25,27,36)        -48.003          estimate D2E/DX2                !
 ! D189  D(46,25,27,20)       -105.9588         estimate D2E/DX2                !
 ! D190  D(46,25,27,36)         70.6114         estimate D2E/DX2                !
 ! D191  D(23,25,31,33)        -36.2158         estimate D2E/DX2                !
 ! D192  D(23,25,31,35)       -157.1402         estimate D2E/DX2                !
 ! D193  D(23,25,31,47)         83.8041         estimate D2E/DX2                !
 ! D194  D(27,25,31,33)       -162.5283         estimate D2E/DX2                !
 ! D195  D(27,25,31,35)         76.5472         estimate D2E/DX2                !
 ! D196  D(27,25,31,47)        -42.5084         estimate D2E/DX2                !
 ! D197  D(46,25,31,33)         80.1357         estimate D2E/DX2                !
 ! D198  D(46,25,31,35)        -40.7888         estimate D2E/DX2                !
 ! D199  D(46,25,31,47)       -159.8444         estimate D2E/DX2                !
 ! D200  D(20,27,36,37)          2.9363         estimate D2E/DX2                !
 ! D201  D(25,27,36,37)       -173.6392         estimate D2E/DX2                !
 ! D202  D(24,30,32,70)        -58.593          estimate D2E/DX2                !
 ! D203  D(24,30,32,71)         63.2968         estimate D2E/DX2                !
 ! D204  D(24,30,32,72)       -176.7334         estimate D2E/DX2                !
 ! D205  D(34,30,32,70)         63.8336         estimate D2E/DX2                !
 ! D206  D(34,30,32,71)       -174.2766         estimate D2E/DX2                !
 ! D207  D(34,30,32,72)        -54.3069         estimate D2E/DX2                !
 ! D208  D(66,30,32,70)       -178.6606         estimate D2E/DX2                !
 ! D209  D(66,30,32,71)        -56.7708         estimate D2E/DX2                !
 ! D210  D(66,30,32,72)         63.199          estimate D2E/DX2                !
 ! D211  D(24,30,34,67)       -177.7629         estimate D2E/DX2                !
 ! D212  D(24,30,34,68)        -56.9932         estimate D2E/DX2                !
 ! D213  D(24,30,34,69)         63.9247         estimate D2E/DX2                !
 ! D214  D(32,30,34,67)         59.3138         estimate D2E/DX2                !
 ! D215  D(32,30,34,68)       -179.9165         estimate D2E/DX2                !
 ! D216  D(32,30,34,69)        -58.9986         estimate D2E/DX2                !
 ! D217  D(66,30,34,67)        -58.4101         estimate D2E/DX2                !
 ! D218  D(66,30,34,68)         62.3596         estimate D2E/DX2                !
 ! D219  D(66,30,34,69)       -176.7226         estimate D2E/DX2                !
 ! D220  D(25,31,33,51)       -176.3651         estimate D2E/DX2                !
 ! D221  D(25,31,33,52)        -58.1763         estimate D2E/DX2                !
 ! D222  D(25,31,33,53)         63.7108         estimate D2E/DX2                !
 ! D223  D(35,31,33,51)        -54.0436         estimate D2E/DX2                !
 ! D224  D(35,31,33,52)         64.1451         estimate D2E/DX2                !
 ! D225  D(35,31,33,53)       -173.9678         estimate D2E/DX2                !
 ! D226  D(47,31,33,51)         63.5171         estimate D2E/DX2                !
 ! D227  D(47,31,33,52)       -178.2942         estimate D2E/DX2                !
 ! D228  D(47,31,33,53)        -56.4071         estimate D2E/DX2                !
 ! D229  D(25,31,35,48)        -56.871          estimate D2E/DX2                !
 ! D230  D(25,31,35,49)         64.0478         estimate D2E/DX2                !
 ! D231  D(25,31,35,50)       -177.6514         estimate D2E/DX2                !
 ! D232  D(33,31,35,48)       -179.7031         estimate D2E/DX2                !
 ! D233  D(33,31,35,49)        -58.7843         estimate D2E/DX2                !
 ! D234  D(33,31,35,50)         59.5165         estimate D2E/DX2                !
 ! D235  D(47,31,35,48)         62.504          estimate D2E/DX2                !
 ! D236  D(47,31,35,49)       -176.5773         estimate D2E/DX2                !
 ! D237  D(47,31,35,50)        -58.2764         estimate D2E/DX2                !
 ! D238  D(27,36,37,38)         57.4598         estimate D2E/DX2                !
 ! D239  D(27,36,37,40)        179.1434         estimate D2E/DX2                !
 ! D240  D(27,36,37,54)        -62.8856         estimate D2E/DX2                !
 ! D241  D(36,37,38,19)         31.0242         estimate D2E/DX2                !
 ! D242  D(36,37,38,22)       -151.9901         estimate D2E/DX2                !
 ! D243  D(40,37,38,19)        -84.7025         estimate D2E/DX2                !
 ! D244  D(40,37,38,22)         92.2832         estimate D2E/DX2                !
 ! D245  D(54,37,38,19)        149.0936         estimate D2E/DX2                !
 ! D246  D(54,37,38,22)        -33.9207         estimate D2E/DX2                !
 ! D247  D(36,37,40,42)       -173.8273         estimate D2E/DX2                !
 ! D248  D(36,37,40,44)         62.363          estimate D2E/DX2                !
 ! D249  D(36,37,40,55)        -55.4833         estimate D2E/DX2                !
 ! D250  D(38,37,40,42)        -55.7492         estimate D2E/DX2                !
 ! D251  D(38,37,40,44)       -179.5589         estimate D2E/DX2                !
 ! D252  D(38,37,40,55)         62.5948         estimate D2E/DX2                !
 ! D253  D(54,37,40,42)         70.5635         estimate D2E/DX2                !
 ! D254  D(54,37,40,44)        -53.2462         estimate D2E/DX2                !
 ! D255  D(54,37,40,55)       -171.0925         estimate D2E/DX2                !
 ! D256  D(37,40,42,59)        -64.5088         estimate D2E/DX2                !
 ! D257  D(37,40,42,60)         57.8852         estimate D2E/DX2                !
 ! D258  D(37,40,42,61)        177.4591         estimate D2E/DX2                !
 ! D259  D(44,40,42,59)         59.4429         estimate D2E/DX2                !
 ! D260  D(44,40,42,60)       -178.1631         estimate D2E/DX2                !
 ! D261  D(44,40,42,61)        -58.5892         estimate D2E/DX2                !
 ! D262  D(55,40,42,59)        178.6548         estimate D2E/DX2                !
 ! D263  D(55,40,42,60)        -58.9512         estimate D2E/DX2                !
 ! D264  D(55,40,42,61)         60.6227         estimate D2E/DX2                !
 ! D265  D(37,40,44,56)       -176.3508         estimate D2E/DX2                !
 ! D266  D(37,40,44,57)        -56.1731         estimate D2E/DX2                !
 ! D267  D(37,40,44,58)         64.8754         estimate D2E/DX2                !
 ! D268  D(42,40,44,56)         58.0773         estimate D2E/DX2                !
 ! D269  D(42,40,44,57)        178.255          estimate D2E/DX2                !
 ! D270  D(42,40,44,58)        -60.6965         estimate D2E/DX2                !
 ! D271  D(55,40,44,56)        -60.6243         estimate D2E/DX2                !
 ! D272  D(55,40,44,57)         59.5534         estimate D2E/DX2                !
 ! D273  D(55,40,44,58)       -179.3981         estimate D2E/DX2                !
 ! D274  D(16,41,43,97)         56.7467         estimate D2E/DX2                !
 ! D275  D(16,41,43,98)        176.3398         estimate D2E/DX2                !
 ! D276  D(16,41,43,99)        -65.715          estimate D2E/DX2                !
 ! D277  D(45,41,43,97)       -179.3545         estimate D2E/DX2                !
 ! D278  D(45,41,43,98)        -59.7614         estimate D2E/DX2                !
 ! D279  D(45,41,43,99)         58.1837         estimate D2E/DX2                !
 ! D280  D(93,41,43,97)        -60.2092         estimate D2E/DX2                !
 ! D281  D(93,41,43,98)         59.3839         estimate D2E/DX2                !
 ! D282  D(93,41,43,99)        177.329          estimate D2E/DX2                !
 ! D283  D(16,41,45,94)         63.9881         estimate D2E/DX2                !
 ! D284  D(16,41,45,95)       -177.2569         estimate D2E/DX2                !
 ! D285  D(16,41,45,96)        -57.0716         estimate D2E/DX2                !
 ! D286  D(43,41,45,94)        -61.53           estimate D2E/DX2                !
 ! D287  D(43,41,45,95)         57.225          estimate D2E/DX2                !
 ! D288  D(43,41,45,96)        177.4103         estimate D2E/DX2                !
 ! D289  D(93,41,45,94)        179.7935         estimate D2E/DX2                !
 ! D290  D(93,41,45,95)        -61.4515         estimate D2E/DX2                !
 ! D291  D(93,41,45,96)         58.7338         estimate D2E/DX2                !
 --------------------------------------------------------------------------------
 Trust Radius=3.00D-01 FncErr=1.00D-07 GrdErr=1.00D-06
 Number of steps in this run=    615 maximum allowed number of steps=    618.
 GradGradGradGradGradGradGradGradGradGradGradGradGradGradGradGradGradGrad

 Symmetry turned off by external request.
 Stoichiometry    C33H57N3NaO9(1+)
 Framework group  C1[X(C33H57N3NaO9)]
 Deg. of freedom   303
 Full point group                 C1      NOp   1
                          Input orientation:                          
 ---------------------------------------------------------------------
 Center     Atomic      Atomic             Coordinates (Angstroms)
 Number     Number       Type             X           Y           Z
 ---------------------------------------------------------------------
      1          7           0       -3.024407   12.376698   12.344147
      2          6           0       -3.592801   13.606550   11.754295
      3          6           0       -2.798538   14.810263   12.314616
      4          8           0       -1.794845   14.687622   13.018716
      5          6           0       -3.308647   12.080216   13.762189
      6          6           0       -5.154292   13.714418   11.852264
      7          6           0       -5.834459   12.339985   11.696842
      8          6           0       -5.707201   14.657066   10.760288
      9          8           0       -3.263894   16.002793   11.899925
     10          6           0       -1.418458   10.453107   12.213327
     11          6           0       -1.971715   11.799295   11.678722
     12          8           0       -1.487569   12.294326   10.635706
     13          6           0       -2.061432    9.203284   11.552894
     14          6           0       -3.596197    9.180838   11.667721
     15          6           0       -1.467934    7.912883   12.152656
     16          6           0       -2.471661   17.184278   12.256431
     17          8           0        0.002253   10.362826   11.859873
     18          8           0       -0.873797   16.319063   10.649208
     19          8           0        2.294865   13.738556   10.617734
     20          8           0        1.404023   15.419260   12.983596
     21          8           0        0.403177   12.274939   13.010260
     22          7           0        3.018578   12.387187   12.330391
     23          7           0        0.000321   17.631276   12.321223
     24          6           0        2.247507   11.266760   11.751073
     25          6           0        1.335295   17.503975   11.699011
     26          6           0        0.802220   11.352613   12.297314
     27          6           0        1.992429   16.216359   12.250590
     28          6           0        3.418422   12.308872   13.749703
     29          6           0       -0.079702   18.041525   13.737097
     30          6           0        2.943956    9.867610   11.882190
     31          6           0        2.211947   18.802218   11.771265
     32          6           0        4.472511    9.973530   11.712615
     33          6           0        1.356691   20.075177   11.616182
     34          6           0        2.404388    8.882355   10.821940
     35          6           0        3.288062   18.800054   10.662958
     36          8           0        3.241989   16.010944   11.796402
     37          6           0        3.877289   14.739593   12.159776
     38          6           0        2.980647   13.580347   11.653212
     39          6           0       -1.039606   16.996969   11.688716
     40          6           0        5.272267   14.796377   11.479859
     41          6           0       -3.249378   18.373673   11.629904
     42          6           0        6.061955   13.481531   11.608275
     43          6           0       -2.523022   19.721721   11.786713
     44          6           0        6.098184   15.967330   12.048806
     45          6           0       -4.665525   18.465553   12.233043
     46          1           0        1.136420   17.294570   10.630757
     47          1           0        2.723411   18.835180   12.753925
     48          1           0        3.939360   17.915898   10.702932
     49          1           0        2.811214   18.829459    9.665385
     50          1           0        3.919214   19.700588   10.758351
     51          1           0        2.017517   20.959532   11.607113
     52          1           0        0.806432   20.062254   10.657554
     53          1           0        0.627462   20.214931   12.429976
     54          1           0        3.974029   14.717843   13.257946
     55          1           0        5.075050   14.979781   10.405681
     56          1           0        7.061760   16.041450   11.515487
     57          1           0        5.579025   16.933686   11.947385
     58          1           0        6.319988   15.805712   13.120564
     59          1           0        6.309881   13.257242   12.662437
     60          1           0        5.522976   12.619557   11.184172
     61          1           0        7.018262   13.578039   11.066193
     62          1           0        4.490356   12.524543   13.882076
     63          1           0        2.814173   12.998761   14.361534
     64          1           0        3.237815   11.285521   14.107272
     65          1           0        2.164448   11.499454   10.672563
     66          1           0        2.726261    9.452611   12.886477
     67          1           0        2.878893    7.895236   10.959359
     68          1           0        1.314696    8.752407   10.876193
     69          1           0        2.656533    9.236535    9.804885
     70          1           0        4.728269   10.407335   10.728461
     71          1           0        4.960282   10.579906   12.492268
     72          1           0        4.914150    8.962459   11.753281
     73          1           0       -1.492597   10.401918   13.312383
     74          1           0       -1.793841    9.260347   10.479794
     75          1           0       -0.370711    7.874848   12.061705
     76          1           0       -1.728453    7.821887   13.224023
     77          1           0       -1.882322    7.032032   11.632286
     78          1           0       -3.923397    9.097745   12.720822
     79          1           0       -4.068352   10.071512   11.223590
     80          1           0       -3.987257    8.295367   11.137925
     81          1           0       -2.419237   12.271123   14.385516
     82          1           0       -4.116453   12.743345   14.102552
     83          1           0       -3.650315   11.041942   13.896949
     84          1           0       -5.511605   14.236255    9.756197
     85          1           0       -6.800780   14.755078   10.874305
     86          1           0       -5.264240   15.661968   10.800411
     87          1           0       -5.568955   11.626205   12.492812
     88          1           0       -6.930325   12.472051   11.720665
     89          1           0       -5.577282   11.882794   10.723825
     90          1           0       -5.422337   14.132340   12.843125
     91          1           0       -3.327179   13.559522   10.681033
     92          1           0       -2.457399   17.257704   13.356943
     93          1           0       -3.329920   18.144997   10.549258
     94          1           0       -4.616113   18.689983   13.315248
     95          1           0       -5.227653   19.281995   11.747390
     96          1           0       -5.238117   17.533856   12.101215
     97          1           0       -1.507617   19.709881   11.359378
     98          1           0       -3.096730   20.506287   11.264250
     99          1           0       -2.456242   20.024181   12.848439
    100          1           0        0.904889   18.418910   14.047393
    101          1           0       -0.808485   18.854306   13.880441
    102          1           0       -0.337788   17.182374   14.378298
    103         11           0       -0.008004   14.131613   11.352590
 ---------------------------------------------------------------------
 Rotational constants (GHZ):      0.0726058      0.0723789      0.0387156
 General basis read from cards:  (5D, 7F)
   776 basis functions,  1544 primitive gaussians,   824 cartesian basis functions
   179 alpha electrons      179 beta electrons
       nuclear repulsion energy      7092.7444724703 Hartrees.
 NAtoms=  103 NActive=  103 NUniq=  103 SFac= 1.00D+00 NAtFMM=   60 NAOKFM=T Big=T
 Integral buffers will be    131072 words long.
 Raffenetti 2 integral format.
 Two-electron integral symmetry is turned off.
 ------------------------------------------------------------------------------
 Polarizable Continuum Model (PCM)
 =================================
 Model                : PCM (using non-symmetric T matrix).
 Atomic radii         : UFF (Universal Force Field).
 Polarization charges : Total charges.
 Charge compensation  : None.
 Solution method      : On-the-fly selection.
 Cavity type          : Scaled VdW (van der Waals Surface) (Alpha=1.100).
 Cavity algorithm     : GePol (No added spheres)
                        Default sphere list used, NSphG=  103.
                        Lebedev-Laikov grids with approx.  5.0 points / Ang**2.
                        Smoothing algorithm: Karplus/York (Gamma=1.0000).
                        Polarization charges: spherical gaussians, with
                                              point-specific exponents (IZeta= 3).
                        Self-potential: point-specific (ISelfS= 7).
                        Self-field    : sphere-specific E.n sum rule (ISelfD= 2).
 1st derivatives      : Analytical E(r).r(x)/FMM algorithm (CHGder, D1EAlg=3).
                        Cavity 1st derivative terms included.
 Solvent              : n-Pentadecane, Eps=   2.033300 Eps(inf)=   2.049192
 ------------------------------------------------------------------------------
 One-electron integrals computed using PRISM.
 NBasis=   776 RedAO= T EigKep=  2.13D-03  NBF=   776
 NBsUse=   776 1.00D-06 EigRej= -1.00D+00 NBFU=   776
 Initial guess from the checkpoint file:  "nP_EB11Na_in.chk"
 B after Tr=     0.000000    0.000000    0.000000
         Rot=    1.000000    0.000000    0.000000    0.000000 Ang=   0.00 deg.
 Requested convergence on RMS density matrix=1.00D-08 within 128 cycles.
 Requested convergence on MAX density matrix=1.00D-06.
 Requested convergence on             energy=1.00D-06.
 No special actions if energy rises.
 Inv3:  Mode=1 IEnd=    88617675.
 Iteration    1 A*A^-1 deviation from unit magnitude is 4.11D-15 for   2569.
 Iteration    1 A*A^-1 deviation from orthogonality  is 3.51D-15 for   3671   3339.
 Iteration    1 A^-1*A deviation from unit magnitude is 3.55D-15 for   2586.
 Iteration    1 A^-1*A deviation from orthogonality  is 7.02D-14 for   5313   4830.
 Error on total polarization charges =  0.00802
 SCF Done:  E(RB-P86) =  -2295.38146777     A.U. after    1 cycles
            NFock=  1  Conv=0.33D-08     -V/T= 2.0077
 QCSCF skips out because SCF is already converged.

 **********************************************************************

            Population analysis using the SCF density.

 **********************************************************************

 Alpha  occ. eigenvalues --  -37.98141 -18.90330 -18.90279 -18.90267 -18.85067
 Alpha  occ. eigenvalues --  -18.85008 -18.85007 -18.83086 -18.83079 -18.83034
 Alpha  occ. eigenvalues --  -14.11982 -14.11939 -14.11918 -10.10067 -10.10023
 Alpha  occ. eigenvalues --  -10.10007 -10.07379 -10.07356 -10.07315 -10.03768
 Alpha  occ. eigenvalues --  -10.03750 -10.03709 -10.01916 -10.01887 -10.01864
 Alpha  occ. eigenvalues --   -9.99466  -9.99452  -9.99443  -9.97839  -9.97826
 Alpha  occ. eigenvalues --   -9.97793  -9.97554  -9.97535  -9.97512  -9.94518
 Alpha  occ. eigenvalues --   -9.94490  -9.94480  -9.94370  -9.94352  -9.94326
 Alpha  occ. eigenvalues --   -9.94133  -9.94123  -9.94122  -9.93832  -9.93822
 Alpha  occ. eigenvalues --   -9.93806  -2.07816  -1.08022  -1.07940  -1.07900
 Alpha  occ. eigenvalues --   -1.05527  -1.05523  -1.05403  -1.01106  -1.01072
 Alpha  occ. eigenvalues --   -1.00696  -0.99330  -0.98955  -0.98924  -0.91664
 Alpha  occ. eigenvalues --   -0.91629  -0.91616  -0.80660  -0.79836  -0.79827
 Alpha  occ. eigenvalues --   -0.78199  -0.78185  -0.77694  -0.72977  -0.72567
 Alpha  occ. eigenvalues --   -0.72554  -0.70850  -0.70841  -0.70626  -0.69016
 Alpha  occ. eigenvalues --   -0.69003  -0.66917  -0.66223  -0.66210  -0.66086
 Alpha  occ. eigenvalues --   -0.65909  -0.65822  -0.65799  -0.61923  -0.59459
 Alpha  occ. eigenvalues --   -0.59438  -0.57877  -0.57870  -0.57529  -0.56180
 Alpha  occ. eigenvalues --   -0.55910  -0.55902  -0.54081  -0.54063  -0.53846
 Alpha  occ. eigenvalues --   -0.53198  -0.53191  -0.52466  -0.51685  -0.51656
 Alpha  occ. eigenvalues --   -0.51520  -0.49614  -0.49038  -0.49008  -0.48371
 Alpha  occ. eigenvalues --   -0.47958  -0.47913  -0.47583  -0.46385  -0.46359
 Alpha  occ. eigenvalues --   -0.46327  -0.45667  -0.45651  -0.44600  -0.44317
 Alpha  occ. eigenvalues --   -0.44307  -0.44024  -0.44005  -0.43786  -0.42970
 Alpha  occ. eigenvalues --   -0.42951  -0.42541  -0.42164  -0.42143  -0.42105
 Alpha  occ. eigenvalues --   -0.41252  -0.41235  -0.41106  -0.40663  -0.40407
 Alpha  occ. eigenvalues --   -0.40398  -0.39917  -0.39910  -0.39626  -0.39435
 Alpha  occ. eigenvalues --   -0.39427  -0.39345  -0.39112  -0.39088  -0.39060
 Alpha  occ. eigenvalues --   -0.38162  -0.38160  -0.38089  -0.37929  -0.37903
 Alpha  occ. eigenvalues --   -0.37840  -0.37479  -0.37453  -0.37331  -0.35857
 Alpha  occ. eigenvalues --   -0.35841  -0.35508  -0.35150  -0.34873  -0.34857
 Alpha  occ. eigenvalues --   -0.34690  -0.34538  -0.34527  -0.34075  -0.34058
 Alpha  occ. eigenvalues --   -0.33965  -0.33897  -0.33880  -0.33726  -0.33572
 Alpha  occ. eigenvalues --   -0.33550  -0.33486  -0.33090  -0.32809  -0.32769
 Alpha  occ. eigenvalues --   -0.29745  -0.29712  -0.29141  -0.28174  -0.28147
 Alpha  occ. eigenvalues --   -0.28099  -0.27158  -0.27123  -0.27010
 Alpha virt. eigenvalues --   -0.10788  -0.10228  -0.10189  -0.09499  -0.09047
 Alpha virt. eigenvalues --   -0.09008  -0.03488  -0.01502  -0.00921  -0.00893
 Alpha virt. eigenvalues --    0.00143   0.00459   0.00510   0.01704   0.01962
 Alpha virt. eigenvalues --    0.01983   0.02573   0.02600   0.02977   0.03235
 Alpha virt. eigenvalues --    0.03249   0.04102   0.04194   0.04233   0.04386
 Alpha virt. eigenvalues --    0.04463   0.05042   0.05108   0.05723   0.05836
 Alpha virt. eigenvalues --    0.05867   0.06193   0.06221   0.06648   0.06905
 Alpha virt. eigenvalues --    0.06951   0.07015   0.07174   0.07274   0.07293
 Alpha virt. eigenvalues --    0.07903   0.08364   0.08414   0.08836   0.09013
 Alpha virt. eigenvalues --    0.09083   0.09355   0.09665   0.09709   0.10084
 Alpha virt. eigenvalues --    0.10184   0.10239   0.10328   0.10718   0.10752
 Alpha virt. eigenvalues --    0.11309   0.11418   0.11429   0.11492   0.11808
 Alpha virt. eigenvalues --    0.11827   0.12199   0.12279   0.12364   0.12604
 Alpha virt. eigenvalues --    0.12800   0.12828   0.12902   0.13131   0.13176
 Alpha virt. eigenvalues --    0.13407   0.13563   0.13622   0.14116   0.14591
 Alpha virt. eigenvalues --    0.14719   0.14736   0.15097   0.15253   0.15280
 Alpha virt. eigenvalues --    0.15591   0.15687   0.16103   0.16303   0.16319
 Alpha virt. eigenvalues --    0.16857   0.17518   0.17551   0.18143   0.18275
 Alpha virt. eigenvalues --    0.18320   0.18378   0.18705   0.18773   0.19029
 Alpha virt. eigenvalues --    0.19403   0.19440   0.19788   0.20098   0.20298
 Alpha virt. eigenvalues --    0.20978   0.21086   0.21160   0.21299   0.23648
 Alpha virt. eigenvalues --    0.23670   0.23898   0.25567   0.25630   0.25707
 Alpha virt. eigenvalues --    0.28226   0.28277   0.28765   0.30680   0.30726
 Alpha virt. eigenvalues --    0.30754   0.32942   0.33176   0.33197   0.37727
 Alpha virt. eigenvalues --    0.37802   0.39075   0.39099   0.39227   0.40087
 Alpha virt. eigenvalues --    0.40725   0.40772   0.40838   0.40979   0.41078
 Alpha virt. eigenvalues --    0.41860   0.42240   0.42272   0.42466   0.43344
 Alpha virt. eigenvalues --    0.43380   0.43500   0.44263   0.44332   0.44479
 Alpha virt. eigenvalues --    0.45385   0.45520   0.46779   0.46805   0.46959
 Alpha virt. eigenvalues --    0.47452   0.47862   0.47944   0.48683   0.48720
 Alpha virt. eigenvalues --    0.48823   0.48868   0.49698   0.49776   0.51315
 Alpha virt. eigenvalues --    0.51332   0.51435   0.51745   0.51770   0.52054
 Alpha virt. eigenvalues --    0.52963   0.53211   0.53277   0.53650   0.54113
 Alpha virt. eigenvalues --    0.54256   0.55536   0.56339   0.56382   0.57292
 Alpha virt. eigenvalues --    0.58594   0.58621   0.59213   0.59803   0.59867
 Alpha virt. eigenvalues --    0.60308   0.61088   0.61181   0.61262   0.61828
 Alpha virt. eigenvalues --    0.61935   0.62355   0.62493   0.62589   0.62786
 Alpha virt. eigenvalues --    0.62849   0.62951   0.65300   0.65819   0.65869
 Alpha virt. eigenvalues --    0.65964   0.67152   0.67246   0.67659   0.67756
 Alpha virt. eigenvalues --    0.68275   0.69388   0.69806   0.69855   0.70445
 Alpha virt. eigenvalues --    0.71070   0.71150   0.71340   0.71548   0.71682
 Alpha virt. eigenvalues --    0.72461   0.72548   0.72830   0.73095   0.73205
 Alpha virt. eigenvalues --    0.73595   0.74138   0.74282   0.75755   0.75844
 Alpha virt. eigenvalues --    0.76075   0.76958   0.77058   0.77152   0.77598
 Alpha virt. eigenvalues --    0.77711   0.77744   0.78416   0.78919   0.78996
 Alpha virt. eigenvalues --    0.79176   0.79869   0.79908   0.79957   0.80324
 Alpha virt. eigenvalues --    0.80676   0.80700   0.81264   0.81288   0.81454
 Alpha virt. eigenvalues --    0.82005   0.82031   0.82100   0.82762   0.82817
 Alpha virt. eigenvalues --    0.83000   0.83460   0.83473   0.83552   0.84022
 Alpha virt. eigenvalues --    0.84061   0.84456   0.84873   0.84928   0.85066
 Alpha virt. eigenvalues --    0.85295   0.85515   0.85619   0.86211   0.86223
 Alpha virt. eigenvalues --    0.86377   0.87525   0.87604   0.87859   0.87954
 Alpha virt. eigenvalues --    0.87990   0.88737   0.89104   0.89292   0.89378
 Alpha virt. eigenvalues --    0.91033   0.91156   0.91224   0.91939   0.92518
 Alpha virt. eigenvalues --    0.92553   0.93360   0.93497   0.93619   0.94424
 Alpha virt. eigenvalues --    0.94485   0.94727   0.95567   0.95637   0.96081
 Alpha virt. eigenvalues --    0.96672   0.96853   0.96918   0.97480   0.97981
 Alpha virt. eigenvalues --    0.98229   0.98397   0.98856   0.98977   0.99510
 Alpha virt. eigenvalues --    0.99912   0.99971   1.01969   1.02145   1.02301
 Alpha virt. eigenvalues --    1.03475   1.04585   1.04594   1.06812   1.07051
 Alpha virt. eigenvalues --    1.07164   1.07402   1.08309   1.08443   1.09337
 Alpha virt. eigenvalues --    1.10050   1.10318   1.11725   1.12188   1.12249
 Alpha virt. eigenvalues --    1.13276   1.13602   1.14094   1.15140   1.17174
 Alpha virt. eigenvalues --    1.17366   1.18637   1.19564   1.19668   1.21448
 Alpha virt. eigenvalues --    1.21582   1.21788   1.21968   1.22825   1.23008
 Alpha virt. eigenvalues --    1.23268   1.24043   1.25019   1.25206   1.26132
 Alpha virt. eigenvalues --    1.26156   1.27715   1.29414   1.29460   1.30834
 Alpha virt. eigenvalues --    1.31377   1.31437   1.31733   1.32510   1.32584
 Alpha virt. eigenvalues --    1.35354   1.35408   1.35677   1.36149   1.36251
 Alpha virt. eigenvalues --    1.36464   1.37370   1.38346   1.38545   1.39036
 Alpha virt. eigenvalues --    1.39518   1.39655   1.40393   1.40688   1.40814
 Alpha virt. eigenvalues --    1.42925   1.43118   1.44508   1.45599   1.45706
 Alpha virt. eigenvalues --    1.45890   1.46844   1.46940   1.48178   1.49107
 Alpha virt. eigenvalues --    1.49201   1.49815   1.50868   1.51020   1.52035
[...]
 ! D214  D(32,30,34,67)         59.3138         -DE/DX =    0.0                 !
 ! D215  D(32,30,34,68)       -179.9165         -DE/DX =    0.0                 !
 ! D216  D(32,30,34,69)        -58.9986         -DE/DX =    0.0                 !
 ! D217  D(66,30,34,67)        -58.4101         -DE/DX =    0.0                 !
 ! D218  D(66,30,34,68)         62.3596         -DE/DX =    0.0                 !
 ! D219  D(66,30,34,69)       -176.7226         -DE/DX =    0.0                 !
 ! D220  D(25,31,33,51)       -176.3651         -DE/DX =    0.0                 !
 ! D221  D(25,31,33,52)        -58.1763         -DE/DX =    0.0                 !
 ! D222  D(25,31,33,53)         63.7108         -DE/DX =    0.0                 !
 ! D223  D(35,31,33,51)        -54.0436         -DE/DX =    0.0                 !
 ! D224  D(35,31,33,52)         64.1451         -DE/DX =    0.0                 !
 ! D225  D(35,31,33,53)       -173.9678         -DE/DX =    0.0                 !
 ! D226  D(47,31,33,51)         63.5171         -DE/DX =    0.0                 !
 ! D227  D(47,31,33,52)       -178.2942         -DE/DX =    0.0                 !
 ! D228  D(47,31,33,53)        -56.4071         -DE/DX =    0.0                 !
 ! D229  D(25,31,35,48)        -56.871          -DE/DX =    0.0                 !
 ! D230  D(25,31,35,49)         64.0478         -DE/DX =    0.0                 !
 ! D231  D(25,31,35,50)       -177.6514         -DE/DX =    0.0                 !
 ! D232  D(33,31,35,48)       -179.7031         -DE/DX =    0.0                 !
 ! D233  D(33,31,35,49)        -58.7843         -DE/DX =    0.0                 !
 ! D234  D(33,31,35,50)         59.5165         -DE/DX =    0.0                 !
 ! D235  D(47,31,35,48)         62.504          -DE/DX =    0.0                 !
 ! D236  D(47,31,35,49)       -176.5773         -DE/DX =    0.0                 !
 ! D237  D(47,31,35,50)        -58.2764         -DE/DX =    0.0                 !
 ! D238  D(27,36,37,38)         57.4598         -DE/DX =    0.0                 !
 ! D239  D(27,36,37,40)        179.1434         -DE/DX =    0.0                 !
 ! D240  D(27,36,37,54)        -62.8856         -DE/DX =    0.0                 !
 ! D241  D(36,37,38,19)         31.0242         -DE/DX =    0.0                 !
 ! D242  D(36,37,38,22)       -151.9901         -DE/DX =    0.0                 !
 ! D243  D(40,37,38,19)        -84.7025         -DE/DX =    0.0                 !
 ! D244  D(40,37,38,22)         92.2832         -DE/DX =    0.0                 !
 ! D245  D(54,37,38,19)        149.0936         -DE/DX =    0.0                 !
 ! D246  D(54,37,38,22)        -33.9207         -DE/DX =    0.0                 !
 ! D247  D(36,37,40,42)       -173.8273         -DE/DX =    0.0                 !
 ! D248  D(36,37,40,44)         62.363          -DE/DX =    0.0                 !
 ! D249  D(36,37,40,55)        -55.4833         -DE/DX =    0.0                 !
 ! D250  D(38,37,40,42)        -55.7492         -DE/DX =    0.0                 !
 ! D251  D(38,37,40,44)       -179.5589         -DE/DX =    0.0                 !
 ! D252  D(38,37,40,55)         62.5948         -DE/DX =    0.0                 !
 ! D253  D(54,37,40,42)         70.5635         -DE/DX =    0.0                 !
 ! D254  D(54,37,40,44)        -53.2462         -DE/DX =    0.0                 !
 ! D255  D(54,37,40,55)       -171.0925         -DE/DX =    0.0                 !
 ! D256  D(37,40,42,59)        -64.5088         -DE/DX =    0.0                 !
 ! D257  D(37,40,42,60)         57.8852         -DE/DX =    0.0                 !
 ! D258  D(37,40,42,61)        177.4591         -DE/DX =    0.0                 !
 ! D259  D(44,40,42,59)         59.4429         -DE/DX =    0.0                 !
 ! D260  D(44,40,42,60)       -178.1631         -DE/DX =    0.0                 !
 ! D261  D(44,40,42,61)        -58.5892         -DE/DX =    0.0                 !
 ! D262  D(55,40,42,59)        178.6548         -DE/DX =    0.0                 !
 ! D263  D(55,40,42,60)        -58.9512         -DE/DX =    0.0                 !
 ! D264  D(55,40,42,61)         60.6227         -DE/DX =    0.0                 !
 ! D265  D(37,40,44,56)       -176.3508         -DE/DX =    0.0                 !
 ! D266  D(37,40,44,57)        -56.1731         -DE/DX =    0.0                 !
 ! D267  D(37,40,44,58)         64.8754         -DE/DX =    0.0                 !
 ! D268  D(42,40,44,56)         58.0773         -DE/DX =    0.0                 !
 ! D269  D(42,40,44,57)        178.255          -DE/DX =    0.0                 !
 ! D270  D(42,40,44,58)        -60.6965         -DE/DX =    0.0                 !
 ! D271  D(55,40,44,56)        -60.6243         -DE/DX =    0.0                 !
 ! D272  D(55,40,44,57)         59.5534         -DE/DX =    0.0                 !
 ! D273  D(55,40,44,58)       -179.3981         -DE/DX =    0.0                 !
 ! D274  D(16,41,43,97)         56.7467         -DE/DX =    0.0                 !
 ! D275  D(16,41,43,98)        176.3398         -DE/DX =    0.0                 !
 ! D276  D(16,41,43,99)        -65.715          -DE/DX =    0.0                 !
 ! D277  D(45,41,43,97)       -179.3545         -DE/DX =    0.0                 !
 ! D278  D(45,41,43,98)        -59.7614         -DE/DX =    0.0                 !
 ! D279  D(45,41,43,99)         58.1837         -DE/DX =    0.0                 !
 ! D280  D(93,41,43,97)        -60.2092         -DE/DX =    0.0                 !
 ! D281  D(93,41,43,98)         59.3839         -DE/DX =    0.0                 !
 ! D282  D(93,41,43,99)        177.329          -DE/DX =    0.0                 !
 ! D283  D(16,41,45,94)         63.9881         -DE/DX =    0.0                 !
 ! D284  D(16,41,45,95)       -177.2569         -DE/DX =    0.0                 !
 ! D285  D(16,41,45,96)        -57.0716         -DE/DX =    0.0                 !
 ! D286  D(43,41,45,94)        -61.53           -DE/DX =    0.0                 !
 ! D287  D(43,41,45,95)         57.225          -DE/DX =    0.0                 !
 ! D288  D(43,41,45,96)        177.4103         -DE/DX =    0.0                 !
 ! D289  D(93,41,45,94)        179.7935         -DE/DX =    0.0                 !
 ! D290  D(93,41,45,95)        -61.4515         -DE/DX =    0.0                 !
 ! D291  D(93,41,45,96)         58.7338         -DE/DX =    0.0                 !
 --------------------------------------------------------------------------------
 GradGradGradGradGradGradGradGradGradGradGradGradGradGradGradGradGradGrad

 Symmetry turned off by external request.
 Stoichiometry    C33H57N3NaO9(1+)
 Framework group  C1[X(C33H57N3NaO9)]
 Deg. of freedom   303
 Full point group                 C1      NOp   1
                          Input orientation:                          
 ---------------------------------------------------------------------
 Center     Atomic      Atomic             Coordinates (Angstroms)
 Number     Number       Type             X           Y           Z
 ---------------------------------------------------------------------
      1          7           0       -3.024407   12.376698   12.344147
      2          6           0       -3.592801   13.606550   11.754295
      3          6           0       -2.798538   14.810263   12.314616
      4          8           0       -1.794845   14.687622   13.018716
      5          6           0       -3.308647   12.080216   13.762189
      6          6           0       -5.154292   13.714418   11.852264
      7          6           0       -5.834459   12.339985   11.696842
      8          6           0       -5.707201   14.657066   10.760288
      9          8           0       -3.263894   16.002793   11.899925
     10          6           0       -1.418458   10.453107   12.213327
     11          6           0       -1.971715   11.799295   11.678722
     12          8           0       -1.487569   12.294326   10.635706
     13          6           0       -2.061432    9.203284   11.552894
     14          6           0       -3.596197    9.180838   11.667721
     15          6           0       -1.467934    7.912883   12.152656
     16          6           0       -2.471661   17.184278   12.256431
     17          8           0        0.002253   10.362826   11.859873
     18          8           0       -0.873797   16.319063   10.649208
     19          8           0        2.294865   13.738556   10.617734
     20          8           0        1.404023   15.419260   12.983596
     21          8           0        0.403177   12.274939   13.010260
     22          7           0        3.018578   12.387187   12.330391
     23          7           0        0.000321   17.631276   12.321223
     24          6           0        2.247507   11.266760   11.751073
     25          6           0        1.335295   17.503975   11.699011
     26          6           0        0.802220   11.352613   12.297314
     27          6           0        1.992429   16.216359   12.250590
     28          6           0        3.418422   12.308872   13.749703
     29          6           0       -0.079702   18.041525   13.737097
     30          6           0        2.943956    9.867610   11.882190
     31          6           0        2.211947   18.802218   11.771265
     32          6           0        4.472511    9.973530   11.712615
     33          6           0        1.356691   20.075177   11.616182
     34          6           0        2.404388    8.882355   10.821940
     35          6           0        3.288062   18.800054   10.662958
     36          8           0        3.241989   16.010944   11.796402
     37          6           0        3.877289   14.739593   12.159776
     38          6           0        2.980647   13.580347   11.653212
     39          6           0       -1.039606   16.996969   11.688716
     40          6           0        5.272267   14.796377   11.479859
     41          6           0       -3.249378   18.373673   11.629904
     42          6           0        6.061955   13.481531   11.608275
     43          6           0       -2.523022   19.721721   11.786713
     44          6           0        6.098184   15.967330   12.048806
     45          6           0       -4.665525   18.465553   12.233043
     46          1           0        1.136420   17.294570   10.630757
     47          1           0        2.723411   18.835180   12.753925
     48          1           0        3.939360   17.915898   10.702932
     49          1           0        2.811214   18.829459    9.665385
     50          1           0        3.919214   19.700588   10.758351
     51          1           0        2.017517   20.959532   11.607113
     52          1           0        0.806432   20.062254   10.657554
     53          1           0        0.627462   20.214931   12.429976
     54          1           0        3.974029   14.717843   13.257946
     55          1           0        5.075050   14.979781   10.405681
     56          1           0        7.061760   16.041450   11.515487
     57          1           0        5.579025   16.933686   11.947385
     58          1           0        6.319988   15.805712   13.120564
     59          1           0        6.309881   13.257242   12.662437
     60          1           0        5.522976   12.619557   11.184172
     61          1           0        7.018262   13.578039   11.066193
     62          1           0        4.490356   12.524543   13.882076
     63          1           0        2.814173   12.998761   14.361534
     64          1           0        3.237815   11.285521   14.107272
     65          1           0        2.164448   11.499454   10.672563
     66          1           0        2.726261    9.452611   12.886477
     67          1           0        2.878893    7.895236   10.959359
     68          1           0        1.314696    8.752407   10.876193
     69          1           0        2.656533    9.236535    9.804885
     70          1           0        4.728269   10.407335   10.728461
     71          1           0        4.960282   10.579906   12.492268
     72          1           0        4.914150    8.962459   11.753281
     73          1           0       -1.492597   10.401918   13.312383
     74          1           0       -1.793841    9.260347   10.479794
     75          1           0       -0.370711    7.874848   12.061705
     76          1           0       -1.728453    7.821887   13.224023
     77          1           0       -1.882322    7.032032   11.632286
     78          1           0       -3.923397    9.097745   12.720822
     79          1           0       -4.068352   10.071512   11.223590
     80          1           0       -3.987257    8.295367   11.137925
     81          1           0       -2.419237   12.271123   14.385516
     82          1           0       -4.116453   12.743345   14.102552
     83          1           0       -3.650315   11.041942   13.896949
     84          1           0       -5.511605   14.236255    9.756197
     85          1           0       -6.800780   14.755078   10.874305
     86          1           0       -5.264240   15.661968   10.800411
     87          1           0       -5.568955   11.626205   12.492812
     88          1           0       -6.930325   12.472051   11.720665
     89          1           0       -5.577282   11.882794   10.723825
     90          1           0       -5.422337   14.132340   12.843125
     91          1           0       -3.327179   13.559522   10.681033
     92          1           0       -2.457399   17.257704   13.356943
     93          1           0       -3.329920   18.144997   10.549258
     94          1           0       -4.616113   18.689983   13.315248
     95          1           0       -5.227653   19.281995   11.747390
     96          1           0       -5.238117   17.533856   12.101215
     97          1           0       -1.507617   19.709881   11.359378
     98          1           0       -3.096730   20.506287   11.264250
     99          1           0       -2.456242   20.024181   12.848439
    100          1           0        0.904889   18.418910   14.047393
    101          1           0       -0.808485   18.854306   13.880441
    102          1           0       -0.337788   17.182374   14.378298
    103         11           0       -0.008004   14.131613   11.352590
 ---------------------------------------------------------------------
 Rotational constants (GHZ):      0.0726058      0.0723789      0.0387156
 1\1\GINC-NODE304\FOpt\RBP86\Gen\C33H57N3Na1O9(1+)\KOZUCH\26-Oct-2018\0
 \\# bp86/gen opt=tight int=ultrafine guess=checkpoint geom=checkpoint 
 nosymm scf=(xqc,maxconventionalcycles=128) scrf=(solvent=n-Pentadecane
 )\\EB21Na_nP_in\\1,1\N,-3.0244072244,12.3766981078,12.3441466002\C,-3.
 5928013159,13.6065495093,11.7542946958\C,-2.7985378977,14.8102626459,1
 2.3146164099\O,-1.7948451416,14.6876220346,13.0187156708\C,-3.30864690
 74,12.08021646,13.7621893472\C,-5.1542924733,13.7144178435,11.85226418
 85\C,-5.8344590851,12.3399853202,11.6968419147\C,-5.707201036,14.65706
 64493,10.7602884029\O,-3.2638935131,16.0027931466,11.8999249538\C,-1.4
 184580763,10.4531074866,12.2133267098\C,-1.9717154186,11.7992946099,11
 .6787223489\O,-1.4875692521,12.2943259888,10.6357055119\C,-2.061431750
 2,9.2032835129,11.5528943885\C,-3.5961971146,9.1808383787,11.667721373
 3\C,-1.4679339373,7.9128828925,12.1526557656\C,-2.4716606914,17.184278
 113,12.2564313476\O,0.002252908,10.362825879,11.8598728354\O,-0.873796
 6308,16.3190629809,10.6492075505\O,2.2948650233,13.7385563111,10.61773
 4461\O,1.4040229364,15.4192600613,12.9835959264\O,0.4031767663,12.2749
 392413,13.0102599993\N,3.0185777257,12.3871871747,12.3303911468\N,0.00
 03211098,17.6312758223,12.3212232333\C,2.2475065518,11.266759877,11.75
 10728296\C,1.3352948123,17.5039753703,11.6990111809\C,0.8022198251,11.
 3526127184,12.2973141474\C,1.9924290022,16.216359101,12.2505902317\C,3
 .418421875,12.3088718134,13.7497025422\C,-0.0797018287,18.0415246338,1
 3.7370968803\C,2.9439559978,9.8676101255,11.8821897772\C,2.2119472761,
 18.802218081,11.7712650814\C,4.4725105594,9.9735301545,11.7126152776\C
 ,1.3566911699,20.0751770321,11.6161816433\C,2.4043879327,8.8823554788,
 10.8219400569\C,3.2880615715,18.8000543086,10.6629575942\O,3.241988884
 4,16.0109437015,11.7964023669\C,3.8772892157,14.7395934293,12.15977554
 7\C,2.9806468863,13.5803472649,11.6532123248\C,-1.0396059104,16.996969
 1725,11.6887157213\C,5.2722668821,14.7963770069,11.4798590442\C,-3.249
 3783997,18.3736731899,11.6299043408\C,6.0619549758,13.4815309299,11.60
 8275305\C,-2.5230221715,19.7217214732,11.7867126443\C,6.0981839507,15.
 9673301762,12.048806334\C,-4.6655252158,18.4655533488,12.233043379\H,1
 .136419815,17.2945700811,10.6307569477\H,2.7234107337,18.8351799621,12
 .7539245177\H,3.9393596596,17.9158978516,10.7029324736\H,2.8112137394,
 18.8294587799,9.6653852906\H,3.9192140027,19.7005880431,10.7583509852\
 H,2.0175174017,20.9595317457,11.6071133539\H,0.8064323995,20.062253775
 ,10.6575540097\H,0.6274616395,20.2149308667,12.4299760301\H,3.97402947
 38,14.71784266,13.2579463073\H,5.0750501677,14.9797808637,10.405681244
 1\H,7.0617598879,16.0414499834,11.5154871311\H,5.5790249145,16.9336858
 344,11.9473849071\H,6.3199882576,15.8057122435,13.1205637104\H,6.30988
 13472,13.2572416545,12.6624365894\H,5.5229762541,12.6195570478,11.1841
 717822\H,7.0182621666,13.5780389634,11.0661931704\H,4.4903560068,12.52
 45431729,13.8820761715\H,2.8141733302,12.9987614566,14.3615337647\H,3.
 2378151258,11.2855207778,14.1072716717\H,2.1644475202,11.4994537037,10
 .6725626254\H,2.7262609778,9.4526109557,12.8864774473\H,2.8788929629,7
 .895235819,10.9593589996\H,1.3146956046,8.7524072859,10.8761933988\H,2
 .6565327445,9.2365345171,9.8048852062\H,4.7282692349,10.4073348309,10.
 7284608802\H,4.9602818247,10.5799062706,12.492267582\H,4.9141495666,8.
 9624592287,11.7532812316\H,-1.4925971816,10.4019184074,13.3123833413\H
 ,-1.7938410392,9.2603472235,10.479794326\H,-0.3707113528,7.87484765,12
 .0617045399\H,-1.7284533858,7.8218872355,13.2240228803\H,-1.8823218383
 ,7.0320322128,11.632285877\H,-3.9233968807,9.0977450448,12.7208218155\
 H,-4.0683524415,10.0715121008,11.2235896296\H,-3.9872569819,8.29536668
 68,11.1379248546\H,-2.4192371335,12.271123044,14.3855160956\H,-4.11645
 2925,12.7433451359,14.1025519019\H,-3.6503153266,11.0419417689,13.8969
 487957\H,-5.5116053085,14.2362552982,9.7561974978\H,-6.8007800082,14.7
 55078473,10.8743052429\H,-5.2642399535,15.6619680327,10.8004107128\H,-
 5.5689554463,11.6262051622,12.4928122079\H,-6.9303248084,12.4720510881
 ,11.7206645244\H,-5.5772817314,11.8827941998,10.7238254158\H,-5.422337
 3568,14.1323398835,12.8431247495\H,-3.3271793507,13.5595215751,10.6810
 326632\H,-2.4573987991,17.2577043592,13.3569427001\H,-3.329919684,18.1
 449969536,10.5492577545\H,-4.6161128922,18.6899831882,13.3152481016\H,
 -5.2276527961,19.2819949964,11.7473904942\H,-5.2381169222,17.533855699
 8,12.101215239\H,-1.5076173164,19.7098806465,11.3593776946\H,-3.096729
 6616,20.506286556,11.2642498885\H,-2.4562420694,20.0241805954,12.84843
 90542\H,0.9048886628,18.4189095354,14.0473926561\H,-0.8084848614,18.85
 43060999,13.8804412584\H,-0.337788055,17.1823743908,14.378298364\Na,-0
 .008003761,14.1316130236,11.3525902614\\Version=ES64L-G09RevD.01\HF=-2
 295.3814678\RMSD=3.303e-09\RMSF=1.312e-06\Dipole=0.0414279,0.0428003,1
 .7916602\Quadrupole=-414.5631921,300.5723474,113.9908447,0.9324791,0.1
 706265,650.4281313\PG=C01 [X(C33H57N3Na1O9)]\\@


 MORNING PEOPLE ARE USUALLY ADMIRED AS EARLY BIRDS.
 RECALL BEN FRANKLIN'S APHORISM THAT THE EARLY BIRD GETS THE WORM.
 I IDENTIFY WITH THE WORM. --  CRAIG JAGGER, MINNEAPOLIS, KS.
 Job cpu time:       0 days  0 hours 25 minutes 50.3 seconds.
 File lengths (MBytes):  RWF=    813 Int=      0 D2E=      0 Chk=     53 Scr=      1
 Normal termination of Gaussian 09 at Fri Oct 26 08:58:35 2018.
