 Entering Gaussian System, Link 0=g09
 Input=/net/work/kozuch/EnniatinDef2TZVP/nP_EB11Mg/Freq/nP_EB11Mg.com
 Output=/net/work/kozuch/EnniatinDef2TZVP/nP_EB11Mg/Freq/nP_EB11Mg.log
 Initial command:
 /afs/math/software/gaussian/g09.D01/opt/@sys/l1.exe "/scratch/kozuch_g09.iGVQWv3/Gau-695.inp" -scrdir="/scratch/kozuch_g09.iGVQWv3/"
 Entering Link 1 = /afs/math/software/gaussian/g09.D01/opt/@sys/l1.exe PID=       696.
  
 Copyright (c) 1988,1990,1992,1993,1995,1998,2003,2009,2013,
            Gaussian, Inc.  All Rights Reserved.
  
 This is part of the Gaussian(R) 09 program.  It is based on
 the Gaussian(R) 03 system (copyright 2003, Gaussian, Inc.),
 the Gaussian(R) 98 system (copyright 1998, Gaussian, Inc.),
 the Gaussian(R) 94 system (copyright 1995, Gaussian, Inc.),
 the Gaussian 92(TM) system (copyright 1992, Gaussian, Inc.),
 the Gaussian 90(TM) system (copyright 1990, Gaussian, Inc.),
 the Gaussian 88(TM) system (copyright 1988, Gaussian, Inc.),
 the Gaussian 86(TM) system (copyright 1986, Carnegie Mellon
 University), and the Gaussian 82(TM) system (copyright 1983,
 Carnegie Mellon University). Gaussian is a federally registered
 trademark of Gaussian, Inc.
  
 This software contains proprietary and confidential information,
 including trade secrets, belonging to Gaussian, Inc.
  
 This software is provided under written license and may be
 used, copied, transmitted, or stored only in accord with that
 written license.
  
 The following legend is applicable only to US Government
 contracts under FAR:
  
                    RESTRICTED RIGHTS LEGEND
  
 Use, reproduction and disclosure by the US Government is
 subject to restrictions as set forth in subparagraphs (a)
 and (c) of the Commercial Computer Software - Restricted
 Rights clause in FAR 52.227-19.
  
 Gaussian, Inc.
 340 Quinnipiac St., Bldg. 40, Wallingford CT 06492
  
  
 ---------------------------------------------------------------
 Warning -- This program may not be used in any manner that
 competes with the business of Gaussian, Inc. or will provide
 assistance to any competitor of Gaussian, Inc.  The licensee
 of this program is prohibited from giving any competitor of
 Gaussian, Inc. access to this program.  By using this program,
 the user acknowledges that Gaussian, Inc. is engaged in the
 business of creating and licensing software in the field of
 computational chemistry and represents and warrants to the
 licensee that it is not a competitor of Gaussian, Inc. and that
 it will not use this program in any manner prohibited above.
 ---------------------------------------------------------------
  

 Cite this work as:
 Gaussian 09, Revision D.01,
 M. J. Frisch, G. W. Trucks, H. B. Schlegel, G. E. Scuseria, 
 M. A. Robb, J. R. Cheeseman, G. Scalmani, V. Barone, B. Mennucci, 
 G. A. Petersson, H. Nakatsuji, M. Caricato, X. Li, H. P. Hratchian, 
 A. F. Izmaylov, J. Bloino, G. Zheng, J. L. Sonnenberg, M. Hada, 
 M. Ehara, K. Toyota, R. Fukuda, J. Hasegawa, M. Ishida, T. Nakajima, 
 Y. Honda, O. Kitao, H. Nakai, T. Vreven, J. A. Montgomery, Jr., 
 J. E. Peralta, F. Ogliaro, M. Bearpark, J. J. Heyd, E. Brothers, 
 K. N. Kudin, V. N. Staroverov, T. Keith, R. Kobayashi, J. Normand, 
 K. Raghavachari, A. Rendell, J. C. Burant, S. S. Iyengar, J. Tomasi, 
 M. Cossi, N. Rega, J. M. Millam, M. Klene, J. E. Knox, J. B. Cross, 
 V. Bakken, C. Adamo, J. Jaramillo, R. Gomperts, R. E. Stratmann, 
 O. Yazyev, A. J. Austin, R. Cammi, C. Pomelli, J. W. Ochterski, 
 R. L. Martin, K. Morokuma, V. G. Zakrzewski, G. A. Voth, 
 P. Salvador, J. J. Dannenberg, S. Dapprich, A. D. Daniels, 
 O. Farkas, J. B. Foresman, J. V. Ortiz, J. Cioslowski, 
 and D. J. Fox, Gaussian, Inc., Wallingford CT, 2013.
 
 ******************************************
 Gaussian 09:  ES64L-G09RevD.01 24-Apr-2013
                 2-Nov-2018 
 ******************************************
 %chk=nP_EB11Mg.chk
 %mem=4GB
 ----------------------------------------------------------------------
 # bp86/gen freq int=ultrafine guess=checkpoint geom=checkpoint nosymm 
 scf=(xqc,maxconventionalcycles=128) scrf=(solvent=n-Pentadecane)
 ----------------------------------------------------------------------
 1/10=4,29=2,30=1,38=1/1,3;
 2/12=2,15=1,40=1/2;
 3/5=7,11=2,14=-4,16=1,25=1,30=1,70=2201,71=2,72=151,74=404,75=-5,116=-2,140=1/1,2,3;
 4/5=1/1;
 5/5=2,8=3,13=1,38=6,53=151,85=128,98=1/2,8;
 8/6=4,10=90,11=11/1;
 11/6=1,8=1,9=11,15=111,16=1,31=1/1,2,10;
 10/6=1,31=1/2;
 6/7=2,8=2,9=2,10=2,18=1,28=1/1;
 7/8=1,10=1,25=1,30=1/1,2,3,16;
 1/10=4,30=1/3;
 99//99;
 ---------
 nP_EB11Mg
 ---------
 Structure from the checkpoint file:  "nP_EB11Mg.chk"
 Charge =  2 Multiplicity = 1
 Redundant internal coordinates found in file.
 N,0,-2.9628454285,12.239193727,12.5904582599
 C,0,-3.7053486854,13.5096468767,12.3118176959
 C,0,-2.739977302,14.6952483956,12.4251069695
 O,0,-1.7409675874,14.7412578712,13.1716219062
 C,0,-3.3151531033,11.3258749237,13.7032980141
 C,0,-5.0227961552,13.6874000263,13.1400482393
 C,0,-6.0704638851,12.6502473303,12.6826309507
 C,0,-5.6220092924,15.1034663639,13.0119063573
 O,0,-3.1017411286,15.678657168,11.6019780399
 C,0,-1.2779786653,10.5989973471,11.7525947262
 C,0,-1.8799919334,12.0062592904,11.8132438148
 O,0,-1.4113050508,12.9087710675,11.04720938
 C,0,-1.7531540212,9.8499362508,10.4736084209
 C,0,-3.2884560007,9.7103945611,10.4337600658
 C,0,-1.084162467,8.4656488877,10.3733644275
 C,0,-2.4164624763,16.9775171544,11.6447852748
 O,0,0.1874561722,10.6583627768,11.6596709692
 O,0,-0.3374659129,15.929564425,11.0013345575
 O,0,1.7255210769,13.5134516868,10.9930503439
 O,0,1.3878773419,15.3341526865,13.1567939484
 O,0,0.376226441,12.3361073696,13.1898011628
 N,0,3.1214260055,12.5298488396,12.5164098697
 N,0,-0.1760420643,17.6264364149,12.5300335038
 C,0,2.3942837668,11.2459080048,12.2672509443
 C,0,1.2988027368,17.6427562401,12.2757435089
 C,0,0.8879284116,11.4788485383,12.4414842323
 C,0,1.8509037005,16.2183959429,12.4075204584
 C,0,4.0851802663,12.7116618634,13.6280938957
 C,0,-0.8169161197,18.3764010666,13.6363948834
 C,0,2.9519548244,10.0200949041,13.066135341
 C,0,2.0890113576,18.7085766991,13.1069370789
 C,0,4.3731767403,9.6769446026,12.5703026793
 C,0,1.7035345698,20.1270558611,12.6355606785
 C,0,2.054971735,8.7711229138,12.9408034049
 C,0,3.6183661083,18.533568774,13.000132433
 O,0,2.8910650518,16.0396714176,11.5946463145
 C,0,3.67296336,14.7961831839,11.6300174438
 C,0,2.7585939491,13.5725924346,11.7344804379
 C,0,-0.9004578229,16.7942474705,11.7471951241
 C,0,4.4798019905,14.7548861619,10.3008698351
 C,0,-2.7812233219,17.7020119692,10.3173384186
 C,0,5.3654384623,13.4943667768,10.2303093947
 C,0,-2.1081654261,19.0871363104,10.2308505077
 C,0,5.3325512954,16.0272374644,10.13821666
 C,0,-4.3085190594,17.8306557646,10.1689692073
 H,0,1.4322983584,17.9049529316,11.2096571996
 H,0,1.8323435134,18.5773657604,14.1744314759
 H,0,3.9755041457,17.5976701292,13.461811023
 H,0,3.9648603323,18.564398879,11.9529343352
 H,0,4.1022312208,19.3666443401,13.5370301335
 H,0,2.1768631471,20.8789612428,13.2891737425
 H,0,2.0701398917,20.2968568575,11.6070978159
 H,0,0.6178992321,20.3170908217,12.6406141059
 H,0,4.3578288679,14.8889472159,12.4866083968
 H,0,3.7312329209,14.7120696604,9.4869066414
 H,0,5.8775083869,15.9796368301,9.1800451218
 H,0,4.717420698,16.9407295371,10.130537893
 H,0,6.0820094511,16.114771557,10.946424492
 H,0,6.1178933754,13.4833632472,11.0401660731
 H,0,4.7864727439,12.5558624559,10.2743270482
 H,0,5.9164679678,13.4930787656,9.2753692598
 H,0,5.1243549531,12.7506809241,13.2653309922
 H,0,3.8386778433,13.6297484802,14.1822727225
 H,0,3.9947603523,11.8745575367,14.3278640424
 H,0,2.5250369728,11.0134026228,11.1940262196
 H,0,2.9751065092,10.2836670976,14.1398965329
 H,0,2.5451508873,7.9358518754,13.4685897732
 H,0,1.0607329399,8.908582005,13.397263937
 H,0,1.9185376076,8.4674680887,11.888733162
 H,0,4.3347790364,9.3189511056,11.5255709035
 H,0,5.0750694969,10.5256678894,12.6092336201
 H,0,4.7969281962,8.8669075794,13.1874038056
 H,0,-1.5024042678,10.0044847299,12.6515864804
 H,0,-1.4307382695,10.4733002625,9.6177812061
 H,0,0.0143114044,8.5359578207,10.345825845
 H,0,-1.3738480019,7.8193025463,11.2221967974
 H,0,-1.4144911375,7.9678726067,9.4459005784
 H,0,-3.6629127391,9.0963141765,11.2734846734
 H,0,-3.8127571132,10.6813688629,10.4442099992
 H,0,-3.577511728,9.1952723771,9.5027220816
 H,0,-2.4083633207,11.0654631783,14.2695377206
 H,0,-3.9939296776,11.8372781004,14.3931336338
 H,0,-3.8122367904,10.4132744314,13.3389462343
 H,0,-5.8281583143,15.3695579133,11.9610202646
 H,0,-6.5808296944,15.1253913365,13.5566375862
 H,0,-4.9784718609,15.8831801926,13.4528265986
 H,0,-5.7081263458,11.6098415794,12.7095260273
 H,0,-6.9611394604,12.7096477039,13.3304294711
 H,0,-6.3923385697,12.8676413921,11.6480993255
 H,0,-4.7822865397,13.5453586968,14.2102012113
 H,0,-3.9994470626,13.4779675204,11.2465435565
 H,0,-2.8409073791,17.5153229357,12.5070006902
 H,0,-2.3871120992,17.0639953013,9.5034954949
 H,0,-4.7346102501,18.4560735318,10.9743921445
 H,0,-4.5426379062,18.3178004541,9.2072525984
 H,0,-4.8111246452,16.850841125,10.1825133987
 H,0,-1.0060046684,19.035714914,10.2649468455
 H,0,-2.3824038225,19.5613961931,9.2739027338
 H,0,-2.4552256765,19.7586521201,11.0376041555
 H,0,-0.0488021288,18.7202855759,14.3363430965
 H,0,-1.3707747133,19.2542746592,13.2677185917
 H,0,-1.4898855674,17.7061913627,14.1918770516
 Mg,0,-0.0014191569,14.1230001577,11.9898996584
 Recover connectivity data from disk.

 GradGradGradGradGradGradGradGradGradGradGradGradGradGradGradGradGradGrad
 Berny optimization.
 Initialization pass.
                           ----------------------------
                           !    Initial Parameters    !
                           ! (Angstroms and Degrees)  !
 --------------------------                            --------------------------
 ! Name  Definition              Value          Derivative Info.                !
 --------------------------------------------------------------------------------
 ! R1    R(1,2)                  1.4977         calculate D2E/DX2 analytically  !
 ! R2    R(1,5)                  1.4821         calculate D2E/DX2 analytically  !
 ! R3    R(1,11)                 1.3531         calculate D2E/DX2 analytically  !
 ! R4    R(2,3)                  1.5331         calculate D2E/DX2 analytically  !
 ! R5    R(2,6)                  1.5663         calculate D2E/DX2 analytically  !
 ! R6    R(2,91)                 1.1056         calculate D2E/DX2 analytically  !
 ! R7    R(3,4)                  1.248          calculate D2E/DX2 analytically  !
 ! R8    R(3,9)                  1.3325         calculate D2E/DX2 analytically  !
 ! R9    R(4,103)                2.192          calculate D2E/DX2 analytically  !
 ! R10   R(5,81)                 1.1003         calculate D2E/DX2 analytically  !
 ! R11   R(5,82)                 1.0946         calculate D2E/DX2 analytically  !
 ! R12   R(5,83)                 1.1012         calculate D2E/DX2 analytically  !
 ! R13   R(6,7)                  1.5435         calculate D2E/DX2 analytically  !
 ! R14   R(6,8)                  1.543          calculate D2E/DX2 analytically  !
 ! R15   R(6,90)                 1.106          calculate D2E/DX2 analytically  !
 ! R16   R(7,87)                 1.102          calculate D2E/DX2 analytically  !
 ! R17   R(7,88)                 1.1029         calculate D2E/DX2 analytically  !
 ! R18   R(7,89)                 1.105          calculate D2E/DX2 analytically  !
 ! R19   R(8,84)                 1.1035         calculate D2E/DX2 analytically  !
 ! R20   R(8,85)                 1.103          calculate D2E/DX2 analytically  !
 ! R21   R(8,86)                 1.103          calculate D2E/DX2 analytically  !
 ! R22   R(9,16)                 1.4692         calculate D2E/DX2 analytically  !
 ! R23   R(10,11)                1.5318         calculate D2E/DX2 analytically  !
 ! R24   R(10,13)                1.5565         calculate D2E/DX2 analytically  !
 ! R25   R(10,17)                1.4696         calculate D2E/DX2 analytically  !
 ! R26   R(10,73)                1.1009         calculate D2E/DX2 analytically  !
 ! R27   R(11,12)                1.2732         calculate D2E/DX2 analytically  !
 ! R28   R(12,103)               2.0859         calculate D2E/DX2 analytically  !
 ! R29   R(13,14)                1.5421         calculate D2E/DX2 analytically  !
 ! R30   R(13,15)                1.5407         calculate D2E/DX2 analytically  !
 ! R31   R(13,74)                1.1068         calculate D2E/DX2 analytically  !
 ! R32   R(14,78)                1.1056         calculate D2E/DX2 analytically  !
 ! R33   R(14,79)                1.1035         calculate D2E/DX2 analytically  !
 ! R34   R(14,80)                1.1026         calculate D2E/DX2 analytically  !
 ! R35   R(15,75)                1.1011         calculate D2E/DX2 analytically  !
 ! R36   R(15,76)                1.1055         calculate D2E/DX2 analytically  !
 ! R37   R(15,77)                1.1032         calculate D2E/DX2 analytically  !
 ! R38   R(16,39)                1.5305         calculate D2E/DX2 analytically  !
 ! R39   R(16,41)                1.5557         calculate D2E/DX2 analytically  !
 ! R40   R(16,92)                1.1013         calculate D2E/DX2 analytically  !
 ! R41   R(17,26)                1.3323         calculate D2E/DX2 analytically  !
 ! R42   R(18,39)                1.2732         calculate D2E/DX2 analytically  !
 ! R43   R(18,103)               2.0866         calculate D2E/DX2 analytically  !
 ! R44   R(19,38)                1.273          calculate D2E/DX2 analytically  !
 ! R45   R(19,103)               2.0851         calculate D2E/DX2 analytically  !
 ! R46   R(20,27)                1.2481         calculate D2E/DX2 analytically  !
 ! R47   R(20,103)               2.1814         calculate D2E/DX2 analytically  !
 ! R48   R(21,26)                1.2477         calculate D2E/DX2 analytically  !
 ! R49   R(22,24)                1.4964         calculate D2E/DX2 analytically  !
 ! R50   R(22,28)                1.4825         calculate D2E/DX2 analytically  !
 ! R51   R(22,38)                1.3529         calculate D2E/DX2 analytically  !
 ! R52   R(23,25)                1.4967         calculate D2E/DX2 analytically  !
 ! R53   R(23,29)                1.4823         calculate D2E/DX2 analytically  !
 ! R54   R(23,39)                1.3528         calculate D2E/DX2 analytically  !
 ! R55   R(24,26)                1.5342         calculate D2E/DX2 analytically  !
 ! R56   R(24,30)                1.5658         calculate D2E/DX2 analytically  !
 ! R57   R(24,65)                1.1059         calculate D2E/DX2 analytically  !
 ! R58   R(25,27)                1.5333         calculate D2E/DX2 analytically  !
 ! R59   R(25,31)                1.5657         calculate D2E/DX2 analytically  !
 ! R60   R(25,46)                1.1059         calculate D2E/DX2 analytically  !
 ! R61   R(27,36)                1.3322         calculate D2E/DX2 analytically  !
 ! R62   R(28,62)                1.1014         calculate D2E/DX2 analytically  !
 ! R63   R(28,63)                1.1003         calculate D2E/DX2 analytically  !
 ! R64   R(28,64)                1.0948         calculate D2E/DX2 analytically  !
 ! R65   R(29,100)               1.0946         calculate D2E/DX2 analytically  !
 ! R66   R(29,101)               1.1015         calculate D2E/DX2 analytically  !
 ! R67   R(29,102)               1.1003         calculate D2E/DX2 analytically  !
 ! R68   R(30,32)                1.5439         calculate D2E/DX2 analytically  !
 ! R69   R(30,34)                1.5428         calculate D2E/DX2 analytically  !
 ! R70   R(30,66)                1.1059         calculate D2E/DX2 analytically  !
 ! R71   R(31,33)                1.5437         calculate D2E/DX2 analytically  !
 ! R72   R(31,35)                1.543          calculate D2E/DX2 analytically  !
 ! R73   R(31,47)                1.1057         calculate D2E/DX2 analytically  !
 ! R74   R(32,70)                1.105          calculate D2E/DX2 analytically  !
 ! R75   R(32,71)                1.102          calculate D2E/DX2 analytically  !
 ! R76   R(32,72)                1.103          calculate D2E/DX2 analytically  !
 ! R77   R(33,51)                1.103          calculate D2E/DX2 analytically  !
 ! R78   R(33,52)                1.105          calculate D2E/DX2 analytically  !
 ! R79   R(33,53)                1.1022         calculate D2E/DX2 analytically  !
 ! R80   R(34,67)                1.103          calculate D2E/DX2 analytically  !
 ! R81   R(34,68)                1.1026         calculate D2E/DX2 analytically  !
 ! R82   R(34,69)                1.1035         calculate D2E/DX2 analytically  !
 ! R83   R(35,48)                1.103          calculate D2E/DX2 analytically  !
 ! R84   R(35,49)                1.1035         calculate D2E/DX2 analytically  !
 ! R85   R(35,50)                1.1029         calculate D2E/DX2 analytically  !
 ! R86   R(36,37)                1.4693         calculate D2E/DX2 analytically  !
 ! R87   R(37,38)                1.5311         calculate D2E/DX2 analytically  !
 ! R88   R(37,40)                1.5554         calculate D2E/DX2 analytically  !
 ! R89   R(37,54)                1.1006         calculate D2E/DX2 analytically  !
 ! R90   R(40,42)                1.5422         calculate D2E/DX2 analytically  !
 ! R91   R(40,44)                1.5403         calculate D2E/DX2 analytically  !
 ! R92   R(40,55)                1.1067         calculate D2E/DX2 analytically  !
 ! R93   R(41,43)                1.5424         calculate D2E/DX2 analytically  !
 ! R94   R(41,45)                1.5399         calculate D2E/DX2 analytically  !
 ! R95   R(41,93)                1.1067         calculate D2E/DX2 analytically  !
 ! R96   R(42,59)                1.1055         calculate D2E/DX2 analytically  !
 ! R97   R(42,60)                1.1036         calculate D2E/DX2 analytically  !
 ! R98   R(42,61)                1.1025         calculate D2E/DX2 analytically  !
 ! R99   R(43,97)                1.1039         calculate D2E/DX2 analytically  !
 ! R100  R(43,98)                1.1027         calculate D2E/DX2 analytically  !
 ! R101  R(43,99)                1.1055         calculate D2E/DX2 analytically  !
 ! R102  R(44,56)                1.1033         calculate D2E/DX2 analytically  !
 ! R103  R(44,57)                1.1013         calculate D2E/DX2 analytically  !
 ! R104  R(44,58)                1.1057         calculate D2E/DX2 analytically  !
 ! R105  R(45,94)                1.1052         calculate D2E/DX2 analytically  !
 ! R106  R(45,95)                1.1032         calculate D2E/DX2 analytically  !
 ! R107  R(45,96)                1.1013         calculate D2E/DX2 analytically  !
 ! A1    A(2,1,5)              122.9961         calculate D2E/DX2 analytically  !
 ! A2    A(2,1,11)             115.8438         calculate D2E/DX2 analytically  !
 ! A3    A(5,1,11)             121.0259         calculate D2E/DX2 analytically  !
 ! A4    A(1,2,3)              109.2736         calculate D2E/DX2 analytically  !
 ! A5    A(1,2,6)              114.513          calculate D2E/DX2 analytically  !
 ! A6    A(1,2,91)             106.669          calculate D2E/DX2 analytically  !
 ! A7    A(3,2,6)              113.7538         calculate D2E/DX2 analytically  !
 ! A8    A(3,2,91)             105.1213         calculate D2E/DX2 analytically  !
 ! A9    A(6,2,91)             106.7987         calculate D2E/DX2 analytically  !
 ! A10   A(2,3,4)              125.2244         calculate D2E/DX2 analytically  !
 ! A11   A(2,3,9)              110.7405         calculate D2E/DX2 analytically  !
 ! A12   A(4,3,9)              124.0316         calculate D2E/DX2 analytically  !
 ! A13   A(3,4,103)            107.6016         calculate D2E/DX2 analytically  !
 ! A14   A(1,5,81)             109.6539         calculate D2E/DX2 analytically  !
 ! A15   A(1,5,82)             109.4325         calculate D2E/DX2 analytically  !
 ! A16   A(1,5,83)             111.6878         calculate D2E/DX2 analytically  !
 ! A17   A(81,5,82)            107.2955         calculate D2E/DX2 analytically  !
 ! A18   A(81,5,83)            110.251          calculate D2E/DX2 analytically  !
 ! A19   A(82,5,83)            108.408          calculate D2E/DX2 analytically  !
 ! A20   A(2,6,7)              109.7523         calculate D2E/DX2 analytically  !
 ! A21   A(2,6,8)              112.7615         calculate D2E/DX2 analytically  !
 ! A22   A(2,6,90)             108.3102         calculate D2E/DX2 analytically  !
 ! A23   A(7,6,8)              109.1758         calculate D2E/DX2 analytically  !
 ! A24   A(7,6,90)             110.3675         calculate D2E/DX2 analytically  !
 ! A25   A(8,6,90)             106.4198         calculate D2E/DX2 analytically  !
 ! A26   A(6,7,87)             113.8261         calculate D2E/DX2 analytically  !
 ! A27   A(6,7,88)             109.7475         calculate D2E/DX2 analytically  !
 ! A28   A(6,7,89)             110.0566         calculate D2E/DX2 analytically  !
 ! A29   A(87,7,88)            107.5794         calculate D2E/DX2 analytically  !
 ! A30   A(87,7,89)            107.7189         calculate D2E/DX2 analytically  !
 ! A31   A(88,7,89)            107.7007         calculate D2E/DX2 analytically  !
 ! A32   A(6,8,84)             111.8977         calculate D2E/DX2 analytically  !
 ! A33   A(6,8,85)             108.3502         calculate D2E/DX2 analytically  !
 ! A34   A(6,8,86)             112.8925         calculate D2E/DX2 analytically  !
 ! A35   A(84,8,85)            107.6464         calculate D2E/DX2 analytically  !
 ! A36   A(84,8,86)            108.6172         calculate D2E/DX2 analytically  !
 ! A37   A(85,8,86)            107.2011         calculate D2E/DX2 analytically  !
 ! A38   A(3,9,16)             120.5198         calculate D2E/DX2 analytically  !
 ! A39   A(11,10,13)           110.7732         calculate D2E/DX2 analytically  !
 ! A40   A(11,10,17)           110.9338         calculate D2E/DX2 analytically  !
 ! A41   A(11,10,73)           112.5606         calculate D2E/DX2 analytically  !
 ! A42   A(13,10,17)           105.7778         calculate D2E/DX2 analytically  !
 ! A43   A(13,10,73)           110.4189         calculate D2E/DX2 analytically  !
 ! A44   A(17,10,73)           106.0651         calculate D2E/DX2 analytically  !
 ! A45   A(1,11,10)            119.6963         calculate D2E/DX2 analytically  !
 ! A46   A(1,11,12)            121.2091         calculate D2E/DX2 analytically  !
 ! A47   A(10,11,12)           118.8635         calculate D2E/DX2 analytically  !
 ! A48   A(11,12,103)          112.9264         calculate D2E/DX2 analytically  !
 ! A49   A(10,13,14)           111.636          calculate D2E/DX2 analytically  !
 ! A50   A(10,13,15)           110.6886         calculate D2E/DX2 analytically  !
 ! A51   A(10,13,74)           105.9864         calculate D2E/DX2 analytically  !
 ! A52   A(14,13,15)           110.4444         calculate D2E/DX2 analytically  !
 ! A53   A(14,13,74)           108.7233         calculate D2E/DX2 analytically  !
 ! A54   A(15,13,74)           109.2223         calculate D2E/DX2 analytically  !
 ! A55   A(13,14,78)           111.5803         calculate D2E/DX2 analytically  !
 ! A56   A(13,14,79)           113.1501         calculate D2E/DX2 analytically  !
 ! A57   A(13,14,80)           108.9708         calculate D2E/DX2 analytically  !
 ! A58   A(78,14,79)           108.6984         calculate D2E/DX2 analytically  !
 ! A59   A(78,14,80)           107.0405         calculate D2E/DX2 analytically  !
 ! A60   A(79,14,80)           107.1281         calculate D2E/DX2 analytically  !
 ! A61   A(13,15,75)           112.1751         calculate D2E/DX2 analytically  !
 ! A62   A(13,15,76)           111.1956         calculate D2E/DX2 analytically  !
 ! A63   A(13,15,77)           109.2734         calculate D2E/DX2 analytically  !
 ! A64   A(75,15,76)           108.5391         calculate D2E/DX2 analytically  !
 ! A65   A(75,15,77)           107.8487         calculate D2E/DX2 analytically  !
 ! A66   A(76,15,77)           107.6518         calculate D2E/DX2 analytically  !
 ! A67   A(9,16,39)            110.9843         calculate D2E/DX2 analytically  !
 ! A68   A(9,16,41)            106.111          calculate D2E/DX2 analytically  !
 ! A69   A(9,16,92)            105.9488         calculate D2E/DX2 analytically  !
 ! A70   A(39,16,41)           110.1894         calculate D2E/DX2 analytically  !
 ! A71   A(39,16,92)           112.8214         calculate D2E/DX2 analytically  !
 ! A72   A(41,16,92)           110.504          calculate D2E/DX2 analytically  !
 ! A73   A(10,17,26)           120.8            calculate D2E/DX2 analytically  !
 ! A74   A(39,18,103)          112.4379         calculate D2E/DX2 analytically  !
 ! A75   A(38,19,103)          112.3406         calculate D2E/DX2 analytically  !
 ! A76   A(27,20,103)          107.9686         calculate D2E/DX2 analytically  !
 ! A77   A(24,22,28)           123.0915         calculate D2E/DX2 analytically  !
 ! A78   A(24,22,38)           115.7692         calculate D2E/DX2 analytically  !
 ! A79   A(28,22,38)           120.879          calculate D2E/DX2 analytically  !
 ! A80   A(25,23,29)           123.1844         calculate D2E/DX2 analytically  !
 ! A81   A(25,23,39)           115.8525         calculate D2E/DX2 analytically  !
 ! A82   A(29,23,39)           120.772          calculate D2E/DX2 analytically  !
 ! A83   A(22,24,26)           109.1425         calculate D2E/DX2 analytically  !
 ! A84   A(22,24,30)           114.4361         calculate D2E/DX2 analytically  !
 ! A85   A(22,24,65)           106.5303         calculate D2E/DX2 analytically  !
 ! A86   A(26,24,30)           114.2432         calculate D2E/DX2 analytically  !
 ! A87   A(26,24,65)           104.9648         calculate D2E/DX2 analytically  !
 ! A88   A(30,24,65)           106.7642         calculate D2E/DX2 analytically  !
 ! A89   A(23,25,27)           109.2741         calculate D2E/DX2 analytically  !
 ! A90   A(23,25,31)           114.4922         calculate D2E/DX2 analytically  !
 ! A91   A(23,25,46)           106.5773         calculate D2E/DX2 analytically  !
 ! A92   A(27,25,31)           113.8926         calculate D2E/DX2 analytically  !
 ! A93   A(27,25,46)           105.0475         calculate D2E/DX2 analytically  !
 ! A94   A(31,25,46)           106.8247         calculate D2E/DX2 analytically  !
 ! A95   A(17,26,21)           124.0176         calculate D2E/DX2 analytically  !
 ! A96   A(17,26,24)           110.859          calculate D2E/DX2 analytically  !
 ! A97   A(21,26,24)           125.1079         calculate D2E/DX2 analytically  !
 ! A98   A(20,27,25)           125.1811         calculate D2E/DX2 analytically  !
 ! A99   A(20,27,36)           124.1214         calculate D2E/DX2 analytically  !
 ! A100  A(25,27,36)           110.6917         calculate D2E/DX2 analytically  !
 ! A101  A(22,28,62)           111.7614         calculate D2E/DX2 analytically  !
 ! A102  A(22,28,63)           109.5338         calculate D2E/DX2 analytically  !
 ! A103  A(22,28,64)           109.3806         calculate D2E/DX2 analytically  !
 ! A104  A(62,28,63)           110.3467         calculate D2E/DX2 analytically  !
 ! A105  A(62,28,64)           108.3936         calculate D2E/DX2 analytically  !
 ! A106  A(63,28,64)           107.3105         calculate D2E/DX2 analytically  !
 ! A107  A(23,29,100)          109.4407         calculate D2E/DX2 analytically  !
 ! A108  A(23,29,101)          111.7651         calculate D2E/DX2 analytically  !
 ! A109  A(23,29,102)          109.4552         calculate D2E/DX2 analytically  !
 ! A110  A(100,29,101)         108.4502         calculate D2E/DX2 analytically  !
 ! A111  A(100,29,102)         107.3213         calculate D2E/DX2 analytically  !
 ! A112  A(101,29,102)         110.2971         calculate D2E/DX2 analytically  !
 ! A113  A(24,30,32)           109.7554         calculate D2E/DX2 analytically  !
 ! A114  A(24,30,34)           112.6589         calculate D2E/DX2 analytically  !
 ! A115  A(24,30,66)           108.4365         calculate D2E/DX2 analytically  !
 ! A116  A(32,30,34)           109.2197         calculate D2E/DX2 analytically  !
 ! A117  A(32,30,66)           110.2148         calculate D2E/DX2 analytically  !
 ! A118  A(34,30,66)           106.4988         calculate D2E/DX2 analytically  !
 ! A119  A(25,31,33)           109.7183         calculate D2E/DX2 analytically  !
 ! A120  A(25,31,35)           112.7234         calculate D2E/DX2 analytically  !
 ! A121  A(25,31,47)           108.3364         calculate D2E/DX2 analytically  !
 ! A122  A(33,31,35)           109.3044         calculate D2E/DX2 analytically  !
 ! A123  A(33,31,47)           110.2356         calculate D2E/DX2 analytically  !
 ! A124  A(35,31,47)           106.4651         calculate D2E/DX2 analytically  !
 ! A125  A(30,32,70)           110.1            calculate D2E/DX2 analytically  !
 ! A126  A(30,32,71)           113.8153         calculate D2E/DX2 analytically  !
 ! A127  A(30,32,72)           109.7078         calculate D2E/DX2 analytically  !
 ! A128  A(70,32,71)           107.7598         calculate D2E/DX2 analytically  !
 ! A129  A(70,32,72)           107.7211         calculate D2E/DX2 analytically  !
 ! A130  A(71,32,72)           107.5263         calculate D2E/DX2 analytically  !
 ! A131  A(31,33,51)           109.7733         calculate D2E/DX2 analytically  !
 ! A132  A(31,33,52)           110.034          calculate D2E/DX2 analytically  !
 ! A133  A(31,33,53)           113.7667         calculate D2E/DX2 analytically  !
 ! A134  A(51,33,52)           107.723          calculate D2E/DX2 analytically  !
 ! A135  A(51,33,53)           107.6043         calculate D2E/DX2 analytically  !
 ! A136  A(52,33,53)           107.7327         calculate D2E/DX2 analytically  !
 ! A137  A(30,34,67)           108.4099         calculate D2E/DX2 analytically  !
 ! A138  A(30,34,68)           112.9359         calculate D2E/DX2 analytically  !
 ! A139  A(30,34,69)           111.8457         calculate D2E/DX2 analytically  !
 ! A140  A(67,34,68)           107.2807         calculate D2E/DX2 analytically  !
 ! A141  A(67,34,69)           107.6247         calculate D2E/DX2 analytically  !
 ! A142  A(68,34,69)           108.5124         calculate D2E/DX2 analytically  !
 ! A143  A(31,35,48)           112.8414         calculate D2E/DX2 analytically  !
 ! A144  A(31,35,49)           111.9465         calculate D2E/DX2 analytically  !
 ! A145  A(31,35,50)           108.3888         calculate D2E/DX2 analytically  !
 ! A146  A(48,35,49)           108.6182         calculate D2E/DX2 analytically  !
 ! A147  A(48,35,50)           107.1637         calculate D2E/DX2 analytically  !
 ! A148  A(49,35,50)           107.6449         calculate D2E/DX2 analytically  !
 ! A149  A(27,36,37)           120.9549         calculate D2E/DX2 analytically  !
 ! A150  A(36,37,38)           111.1114         calculate D2E/DX2 analytically  !
 ! A151  A(36,37,40)           106.1373         calculate D2E/DX2 analytically  !
 ! A152  A(36,37,54)           106.1729         calculate D2E/DX2 analytically  !
 ! A153  A(38,37,40)           110.2963         calculate D2E/DX2 analytically  !
 ! A154  A(38,37,54)           112.6977         calculate D2E/DX2 analytically  !
 ! A155  A(40,37,54)           110.1522         calculate D2E/DX2 analytically  !
 ! A156  A(19,38,22)           121.2293         calculate D2E/DX2 analytically  !
 ! A157  A(19,38,37)           118.8196         calculate D2E/DX2 analytically  !
 ! A158  A(22,38,37)           119.6847         calculate D2E/DX2 analytically  !
 ! A159  A(16,39,18)           118.695          calculate D2E/DX2 analytically  !
 ! A160  A(16,39,23)           119.7013         calculate D2E/DX2 analytically  !
 ! A161  A(18,39,23)           121.332          calculate D2E/DX2 analytically  !
 ! A162  A(37,40,42)           111.0202         calculate D2E/DX2 analytically  !
 ! A163  A(37,40,44)           110.8233         calculate D2E/DX2 analytically  !
 ! A164  A(37,40,55)           106.1803         calculate D2E/DX2 analytically  !
 ! A165  A(42,40,44)           110.6352         calculate D2E/DX2 analytically  !
 ! A166  A(42,40,55)           108.8552         calculate D2E/DX2 analytically  !
 ! A167  A(44,40,55)           109.1942         calculate D2E/DX2 analytically  !
 ! A168  A(16,41,43)           111.331          calculate D2E/DX2 analytically  !
 ! A169  A(16,41,45)           110.7128         calculate D2E/DX2 analytically  !
 ! A170  A(16,41,93)           105.993          calculate D2E/DX2 analytically  !
 ! A171  A(43,41,45)           110.6328         calculate D2E/DX2 analytically  !
 ! A172  A(43,41,93)           108.7288         calculate D2E/DX2 analytically  !
 ! A173  A(45,41,93)           109.3004         calculate D2E/DX2 analytically  !
 ! A174  A(40,42,59)           111.4381         calculate D2E/DX2 analytically  !
 ! A175  A(40,42,60)           113.0787         calculate D2E/DX2 analytically  !
 ! A176  A(40,42,61)           109.1237         calculate D2E/DX2 analytically  !
 ! A177  A(59,42,60)           108.626          calculate D2E/DX2 analytically  !
 ! A178  A(59,42,61)           107.1164         calculate D2E/DX2 analytically  !
 ! A179  A(60,42,61)           107.2026         calculate D2E/DX2 analytically  !
 ! A180  A(41,43,97)           113.0864         calculate D2E/DX2 analytically  !
 ! A181  A(41,43,98)           109.049          calculate D2E/DX2 analytically  !
 ! A182  A(41,43,99)           111.5651         calculate D2E/DX2 analytically  !
 ! A183  A(97,43,98)           107.1669         calculate D2E/DX2 analytically  !
 ! A184  A(97,43,99)           108.6139         calculate D2E/DX2 analytically  !
 ! A185  A(98,43,99)           107.0961         calculate D2E/DX2 analytically  !
 ! A186  A(40,44,56)           109.2394         calculate D2E/DX2 analytically  !
 ! A187  A(40,44,57)           112.1279         calculate D2E/DX2 analytically  !
 ! A188  A(40,44,58)           111.3132         calculate D2E/DX2 analytically  !
 ! A189  A(56,44,57)           107.7944         calculate D2E/DX2 analytically  !
 ! A190  A(56,44,58)           107.6627         calculate D2E/DX2 analytically  !
 ! A191  A(57,44,58)           108.5432         calculate D2E/DX2 analytically  !
 ! A192  A(41,45,94)           111.0666         calculate D2E/DX2 analytically  !
 ! A193  A(41,45,95)           109.3522         calculate D2E/DX2 analytically  !
 ! A194  A(41,45,96)           112.1567         calculate D2E/DX2 analytically  !
 ! A195  A(94,45,95)           107.6745         calculate D2E/DX2 analytically  !
 ! A196  A(94,45,96)           108.5761         calculate D2E/DX2 analytically  !
 ! A197  A(95,45,96)           107.863          calculate D2E/DX2 analytically  !
 ! A198  A(4,103,12)            82.6128         calculate D2E/DX2 analytically  !
 ! A199  A(4,103,18)            83.3043         calculate D2E/DX2 analytically  !
 ! A200  A(4,103,20)            93.465          calculate D2E/DX2 analytically  !
 ! A201  A(12,103,18)          100.4295         calculate D2E/DX2 analytically  !
 ! A202  A(12,103,19)           99.9961         calculate D2E/DX2 analytically  !
 ! A203  A(18,103,19)           99.2063         calculate D2E/DX2 analytically  !
 ! A204  A(18,103,20)           82.8366         calculate D2E/DX2 analytically  !
 ! A205  A(19,103,20)           83.7173         calculate D2E/DX2 analytically  !
 ! A206  L(4,103,19,12,-1)     182.6089         calculate D2E/DX2 analytically  !
 ! A207  L(12,103,20,4,-1)     176.0778         calculate D2E/DX2 analytically  !
 ! A208  L(4,103,19,12,-2)     183.153          calculate D2E/DX2 analytically  !
 ! A209  L(12,103,20,4,-2)     176.1575         calculate D2E/DX2 analytically  !
 ! D1    D(5,1,2,3)            119.5942         calculate D2E/DX2 analytically  !
 ! D2    D(5,1,2,6)             -9.3416         calculate D2E/DX2 analytically  !
 ! D3    D(5,1,2,91)          -127.2535         calculate D2E/DX2 analytically  !
 ! D4    D(11,1,2,3)           -56.2295         calculate D2E/DX2 analytically  !
 ! D5    D(11,1,2,6)           174.8346         calculate D2E/DX2 analytically  !
 ! D6    D(11,1,2,91)           56.9228         calculate D2E/DX2 analytically  !
 ! D7    D(2,1,5,81)          -131.3596         calculate D2E/DX2 analytically  !
 ! D8    D(2,1,5,82)           -13.9235         calculate D2E/DX2 analytically  !
 ! D9    D(2,1,5,83)           106.121          calculate D2E/DX2 analytically  !
 ! D10   D(11,1,5,81)           44.2539         calculate D2E/DX2 analytically  !
 ! D11   D(11,1,5,82)          161.69           calculate D2E/DX2 analytically  !
 ! D12   D(11,1,5,83)          -78.2654         calculate D2E/DX2 analytically  !
 ! D13   D(2,1,11,10)         -163.8225         calculate D2E/DX2 analytically  !
 ! D14   D(2,1,11,12)           10.59           calculate D2E/DX2 analytically  !
 ! D15   D(5,1,11,10)           20.2648         calculate D2E/DX2 analytically  !
 ! D16   D(5,1,11,12)         -165.3227         calculate D2E/DX2 analytically  !
 ! D17   D(1,2,3,4)            -30.0789         calculate D2E/DX2 analytically  !
 ! D18   D(1,2,3,9)            149.2542         calculate D2E/DX2 analytically  !
 ! D19   D(6,2,3,4)             99.2748         calculate D2E/DX2 analytically  !
 ! D20   D(6,2,3,9)            -81.3921         calculate D2E/DX2 analytically  !
 ! D21   D(91,2,3,4)          -144.2375         calculate D2E/DX2 analytically  !
 ! D22   D(91,2,3,9)            35.0957         calculate D2E/DX2 analytically  !
 ! D23   D(1,2,6,7)            -68.1599         calculate D2E/DX2 analytically  !
 ! D24   D(1,2,6,8)            169.893          calculate D2E/DX2 analytically  !
 ! D25   D(1,2,6,90)            52.3937         calculate D2E/DX2 analytically  !
 ! D26   D(3,2,6,7)            165.1821         calculate D2E/DX2 analytically  !
 ! D27   D(3,2,6,8)             43.235          calculate D2E/DX2 analytically  !
 ! D28   D(3,2,6,90)           -74.2642         calculate D2E/DX2 analytically  !
 ! D29   D(91,2,6,7)            49.6782         calculate D2E/DX2 analytically  !
 ! D30   D(91,2,6,8)           -72.2689         calculate D2E/DX2 analytically  !
 ! D31   D(91,2,6,90)          170.2318         calculate D2E/DX2 analytically  !
 ! D32   D(2,3,4,103)           94.9612         calculate D2E/DX2 analytically  !
 ! D33   D(9,3,4,103)          -84.2862         calculate D2E/DX2 analytically  !
 ! D34   D(2,3,9,16)           173.0456         calculate D2E/DX2 analytically  !
 ! D35   D(4,3,9,16)            -7.6118         calculate D2E/DX2 analytically  !
 ! D36   D(3,4,103,12)         -32.8615         calculate D2E/DX2 analytically  !
 ! D37   D(3,4,103,18)          68.6179         calculate D2E/DX2 analytically  !
 ! D38   D(3,4,103,20)         150.981          calculate D2E/DX2 analytically  !
 ! D39   D(2,6,7,87)            53.8963         calculate D2E/DX2 analytically  !
 ! D40   D(2,6,7,88)           174.515          calculate D2E/DX2 analytically  !
 ! D41   D(2,6,7,89)           -67.1282         calculate D2E/DX2 analytically  !
 ! D42   D(8,6,7,87)           177.9594         calculate D2E/DX2 analytically  !
 ! D43   D(8,6,7,88)           -61.4219         calculate D2E/DX2 analytically  !
 ! D44   D(8,6,7,89)            56.935          calculate D2E/DX2 analytically  !
 ! D45   D(90,6,7,87)          -65.403          calculate D2E/DX2 analytically  !
 ! D46   D(90,6,7,88)           55.2157         calculate D2E/DX2 analytically  !
 ! D47   D(90,6,7,89)          173.5725         calculate D2E/DX2 analytically  !
 ! D48   D(2,6,8,84)            57.2086         calculate D2E/DX2 analytically  !
 ! D49   D(2,6,8,85)           175.7335         calculate D2E/DX2 analytically  !
 ! D50   D(2,6,8,86)           -65.6941         calculate D2E/DX2 analytically  !
 ! D51   D(7,6,8,84)           -65.0632         calculate D2E/DX2 analytically  !
 ! D52   D(7,6,8,85)            53.4618         calculate D2E/DX2 analytically  !
 ! D53   D(7,6,8,86)           172.0341         calculate D2E/DX2 analytically  !
 ! D54   D(90,6,8,84)          175.8171         calculate D2E/DX2 analytically  !
 ! D55   D(90,6,8,85)          -65.6579         calculate D2E/DX2 analytically  !
 ! D56   D(90,6,8,86)           52.9145         calculate D2E/DX2 analytically  !
 ! D57   D(3,9,16,39)           43.8023         calculate D2E/DX2 analytically  !
 ! D58   D(3,9,16,41)          163.5073         calculate D2E/DX2 analytically  !
 ! D59   D(3,9,16,92)          -78.9938         calculate D2E/DX2 analytically  !
 ! D60   D(13,10,11,1)          99.5546         calculate D2E/DX2 analytically  !
 ! D61   D(13,10,11,12)        -74.989          calculate D2E/DX2 analytically  !
 ! D62   D(17,10,11,1)        -143.2857         calculate D2E/DX2 analytically  !
 ! D63   D(17,10,11,12)         42.1706         calculate D2E/DX2 analytically  !
 ! D64   D(73,10,11,1)         -24.6156         calculate D2E/DX2 analytically  !
 ! D65   D(73,10,11,12)        160.8407         calculate D2E/DX2 analytically  !
 ! D66   D(11,10,13,14)        -59.7469         calculate D2E/DX2 analytically  !
 ! D67   D(11,10,13,15)        176.7853         calculate D2E/DX2 analytically  !
 ! D68   D(11,10,13,74)         58.473          calculate D2E/DX2 analytically  !
 ! D69   D(17,10,13,14)        179.9701         calculate D2E/DX2 analytically  !
 ! D70   D(17,10,13,15)         56.5023         calculate D2E/DX2 analytically  !
 ! D71   D(17,10,13,74)        -61.81           calculate D2E/DX2 analytically  !
 ! D72   D(73,10,13,14)         65.6377         calculate D2E/DX2 analytically  !
 ! D73   D(73,10,13,15)        -57.8302         calculate D2E/DX2 analytically  !
 ! D74   D(73,10,13,74)       -176.1424         calculate D2E/DX2 analytically  !
 ! D75   D(11,10,17,26)         45.1992         calculate D2E/DX2 analytically  !
 ! D76   D(13,10,17,26)        165.3772         calculate D2E/DX2 analytically  !
 ! D77   D(73,10,17,26)        -77.3232         calculate D2E/DX2 analytically  !
 ! D78   D(1,11,12,103)         88.4921         calculate D2E/DX2 analytically  !
 ! D79   D(10,11,12,103)       -97.0499         calculate D2E/DX2 analytically  !
 ! D80   D(11,12,103,4)        -66.3438         calculate D2E/DX2 analytically  !
 ! D81   D(11,12,103,18)      -148.0985         calculate D2E/DX2 analytically  !
 ! D82   D(11,12,103,19)       110.5032         calculate D2E/DX2 analytically  !
 ! D83   D(10,13,14,78)        -63.2536         calculate D2E/DX2 analytically  !
 ! D84   D(10,13,14,79)         59.7069         calculate D2E/DX2 analytically  !
 ! D85   D(10,13,14,80)        178.7637         calculate D2E/DX2 analytically  !
 ! D86   D(15,13,14,78)         60.3525         calculate D2E/DX2 analytically  !
 ! D87   D(15,13,14,79)       -176.687          calculate D2E/DX2 analytically  !
 ! D88   D(15,13,14,80)        -57.6302         calculate D2E/DX2 analytically  !
 ! D89   D(74,13,14,78)       -179.8229         calculate D2E/DX2 analytically  !
 ! D90   D(74,13,14,79)        -56.8623         calculate D2E/DX2 analytically  !
 ! D91   D(74,13,14,80)         62.1945         calculate D2E/DX2 analytically  !
 ! D92   D(10,13,15,75)        -58.8531         calculate D2E/DX2 analytically  !
 ! D93   D(10,13,15,76)         62.9037         calculate D2E/DX2 analytically  !
 ! D94   D(10,13,15,77)       -178.4015         calculate D2E/DX2 analytically  !
 ! D95   D(14,13,15,75)        176.9945         calculate D2E/DX2 analytically  !
 ! D96   D(14,13,15,76)        -61.2486         calculate D2E/DX2 analytically  !
 ! D97   D(14,13,15,77)         57.4461         calculate D2E/DX2 analytically  !
 ! D98   D(74,13,15,75)         57.471          calculate D2E/DX2 analytically  !
 ! D99   D(74,13,15,76)        179.2278         calculate D2E/DX2 analytically  !
 ! D100  D(74,13,15,77)        -62.0774         calculate D2E/DX2 analytically  !
 ! D101  D(9,16,39,18)          44.5972         calculate D2E/DX2 analytically  !
 ! D102  D(9,16,39,23)        -141.31           calculate D2E/DX2 analytically  !
 ! D103  D(41,16,39,18)        -72.6419         calculate D2E/DX2 analytically  !
 ! D104  D(41,16,39,23)        101.4509         calculate D2E/DX2 analytically  !
 ! D105  D(92,16,39,18)        163.3275         calculate D2E/DX2 analytically  !
 ! D106  D(92,16,39,23)        -22.5796         calculate D2E/DX2 analytically  !
 ! D107  D(9,16,41,43)        -179.5119         calculate D2E/DX2 analytically  !
 ! D108  D(9,16,41,45)          56.9774         calculate D2E/DX2 analytically  !
 ! D109  D(9,16,41,93)         -61.4447         calculate D2E/DX2 analytically  !
 ! D110  D(39,16,41,43)        -59.2889         calculate D2E/DX2 analytically  !
 ! D111  D(39,16,41,45)        177.2004         calculate D2E/DX2 analytically  !
 ! D112  D(39,16,41,93)         58.7783         calculate D2E/DX2 analytically  !
 ! D113  D(92,16,41,43)         66.0713         calculate D2E/DX2 analytically  !
 ! D114  D(92,16,41,45)        -57.4394         calculate D2E/DX2 analytically  !
 ! D115  D(92,16,41,93)       -175.8616         calculate D2E/DX2 analytically  !
 ! D116  D(10,17,26,21)         -7.6684         calculate D2E/DX2 analytically  !
 ! D117  D(10,17,26,24)        173.7006         calculate D2E/DX2 analytically  !
 ! D118  D(103,18,39,16)       -97.9147         calculate D2E/DX2 analytically  !
 ! D119  D(103,18,39,23)        88.0927         calculate D2E/DX2 analytically  !
 ! D120  D(39,18,103,4)         27.5605         calculate D2E/DX2 analytically  !
 ! D121  D(39,18,103,12)       108.7457         calculate D2E/DX2 analytically  !
 ! D122  D(39,18,103,19)      -149.212          calculate D2E/DX2 analytically  !
 ! D123  D(39,18,103,20)       -66.8032         calculate D2E/DX2 analytically  !
 ! D124  D(103,19,38,22)        88.1197         calculate D2E/DX2 analytically  !
 ! D125  D(103,19,38,37)       -97.829          calculate D2E/DX2 analytically  !
 ! D126  D(38,19,103,12)      -148.0419         calculate D2E/DX2 analytically  !
 ! D127  D(38,19,103,18)       109.5553         calculate D2E/DX2 analytically  !
 ! D128  D(38,19,103,20)        27.8888         calculate D2E/DX2 analytically  !
 ! D129  D(103,20,27,25)        94.6275         calculate D2E/DX2 analytically  !
 ! D130  D(103,20,27,36)       -84.4129         calculate D2E/DX2 analytically  !
 ! D131  D(27,20,103,4)       -114.8885         calculate D2E/DX2 analytically  !
 ! D132  D(27,20,103,18)       -32.0889         calculate D2E/DX2 analytically  !
 ! D133  D(27,20,103,19)        68.0515         calculate D2E/DX2 analytically  !
 ! D134  D(28,22,24,26)        116.6889         calculate D2E/DX2 analytically  !
 ! D135  D(28,22,24,30)        -12.7407         calculate D2E/DX2 analytically  !
 ! D136  D(28,22,24,65)       -130.4721         calculate D2E/DX2 analytically  !
 ! D137  D(38,22,24,26)        -57.4874         calculate D2E/DX2 analytically  !
 ! D138  D(38,22,24,30)        173.083          calculate D2E/DX2 analytically  !
 ! D139  D(38,22,24,65)         55.3517         calculate D2E/DX2 analytically  !
 ! D140  D(24,22,28,62)        107.3178         calculate D2E/DX2 analytically  !
 ! D141  D(24,22,28,63)       -130.0754         calculate D2E/DX2 analytically  !
 ! D142  D(24,22,28,64)        -12.7212         calculate D2E/DX2 analytically  !
 ! D143  D(38,22,28,62)        -78.794          calculate D2E/DX2 analytically  !
 ! D144  D(38,22,28,63)         43.8127         calculate D2E/DX2 analytically  !
 ! D145  D(38,22,28,64)        161.167          calculate D2E/DX2 analytically  !
 ! D146  D(24,22,38,19)         10.7363         calculate D2E/DX2 analytically  !
 ! D147  D(24,22,38,37)       -163.2643         calculate D2E/DX2 analytically  !
 ! D148  D(28,22,38,19)       -163.5792         calculate D2E/DX2 analytically  !
 ! D149  D(28,22,38,37)         22.4202         calculate D2E/DX2 analytically  !
 ! D150  D(29,23,25,27)        118.8231         calculate D2E/DX2 analytically  !
 ! D151  D(29,23,25,31)        -10.2864         calculate D2E/DX2 analytically  !
 ! D152  D(29,23,25,46)       -128.1565         calculate D2E/DX2 analytically  !
 ! D153  D(39,23,25,27)        -56.1779         calculate D2E/DX2 analytically  !
 ! D154  D(39,23,25,31)        174.7126         calculate D2E/DX2 analytically  !
 ! D155  D(39,23,25,46)         56.8424         calculate D2E/DX2 analytically  !
 ! D156  D(25,23,29,100)       -13.1741         calculate D2E/DX2 analytically  !
 ! D157  D(25,23,29,101)       106.9782         calculate D2E/DX2 analytically  !
 ! D158  D(25,23,29,102)      -130.5306         calculate D2E/DX2 analytically  !
 ! D159  D(39,23,29,100)       161.5895         calculate D2E/DX2 analytically  !
 ! D160  D(39,23,29,101)       -78.2582         calculate D2E/DX2 analytically  !
 ! D161  D(39,23,29,102)        44.2329         calculate D2E/DX2 analytically  !
 ! D162  D(25,23,39,16)       -162.9556         calculate D2E/DX2 analytically  !
 ! D163  D(25,23,39,18)         10.9775         calculate D2E/DX2 analytically  !
 ! D164  D(29,23,39,16)         21.9133         calculate D2E/DX2 analytically  !
 ! D165  D(29,23,39,18)       -164.1537         calculate D2E/DX2 analytically  !
 ! D166  D(22,24,26,17)        150.0359         calculate D2E/DX2 analytically  !
 ! D167  D(22,24,26,21)        -28.577          calculate D2E/DX2 analytically  !
 ! D168  D(30,24,26,17)        -80.4286         calculate D2E/DX2 analytically  !
 ! D169  D(30,24,26,21)        100.9585         calculate D2E/DX2 analytically  !
 ! D170  D(65,24,26,17)         36.1743         calculate D2E/DX2 analytically  !
 ! D171  D(65,24,26,21)       -142.4387         calculate D2E/DX2 analytically  !
 ! D172  D(22,24,30,32)        -66.4052         calculate D2E/DX2 analytically  !
 ! D173  D(22,24,30,34)        171.6593         calculate D2E/DX2 analytically  !
 ! D174  D(22,24,30,66)         54.0417         calculate D2E/DX2 analytically  !
 ! D175  D(26,24,30,32)        166.7508         calculate D2E/DX2 analytically  !
 ! D176  D(26,24,30,34)         44.8153         calculate D2E/DX2 analytically  !
 ! D177  D(26,24,30,66)        -72.8023         calculate D2E/DX2 analytically  !
 ! D178  D(65,24,30,32)         51.1928         calculate D2E/DX2 analytically  !
 ! D179  D(65,24,30,34)        -70.7428         calculate D2E/DX2 analytically  !
 ! D180  D(65,24,30,66)        171.6397         calculate D2E/DX2 analytically  !
 ! D181  D(23,25,27,20)        -30.3949         calculate D2E/DX2 analytically  !
 ! D182  D(23,25,27,36)        148.756          calculate D2E/DX2 analytically  !
 ! D183  D(31,25,27,20)         99.044          calculate D2E/DX2 analytically  !
 ! D184  D(31,25,27,36)        -81.8051         calculate D2E/DX2 analytically  !
 ! D185  D(46,25,27,20)       -144.4108         calculate D2E/DX2 analytically  !
 ! D186  D(46,25,27,36)         34.7401         calculate D2E/DX2 analytically  !
 ! D187  D(23,25,31,33)        -67.7737         calculate D2E/DX2 analytically  !
 ! D188  D(23,25,31,35)        170.1647         calculate D2E/DX2 analytically  !
 ! D189  D(23,25,31,47)         52.6151         calculate D2E/DX2 analytically  !
 ! D190  D(27,25,31,33)        165.4616         calculate D2E/DX2 analytically  !
 ! D191  D(27,25,31,35)         43.4            calculate D2E/DX2 analytically  !
 ! D192  D(27,25,31,47)        -74.1496         calculate D2E/DX2 analytically  !
 ! D193  D(46,25,31,33)         49.9557         calculate D2E/DX2 analytically  !
 ! D194  D(46,25,31,35)        -72.1059         calculate D2E/DX2 analytically  !
 ! D195  D(46,25,31,47)        170.3445         calculate D2E/DX2 analytically  !
 ! D196  D(20,27,36,37)         -6.6577         calculate D2E/DX2 analytically  !
 ! D197  D(25,27,36,37)        174.1807         calculate D2E/DX2 analytically  !
 ! D198  D(24,30,32,70)        -66.1567         calculate D2E/DX2 analytically  !
 ! D199  D(24,30,32,71)         54.9451         calculate D2E/DX2 analytically  !
 ! D200  D(24,30,32,72)        175.4594         calculate D2E/DX2 analytically  !
 ! D201  D(34,30,32,70)         57.8096         calculate D2E/DX2 analytically  !
 ! D202  D(34,30,32,71)        178.9114         calculate D2E/DX2 analytically  !
 ! D203  D(34,30,32,72)        -60.5743         calculate D2E/DX2 analytically  !
 ! D204  D(66,30,32,70)        174.4809         calculate D2E/DX2 analytically  !
 ! D205  D(66,30,32,71)        -64.4173         calculate D2E/DX2 analytically  !
 ! D206  D(66,30,32,72)         56.097          calculate D2E/DX2 analytically  !
 ! D207  D(24,30,34,67)        176.1503         calculate D2E/DX2 analytically  !
 ! D208  D(24,30,34,68)        -65.1121         calculate D2E/DX2 analytically  !
 ! D209  D(24,30,34,69)         57.6452         calculate D2E/DX2 analytically  !
 ! D210  D(32,30,34,67)         53.9124         calculate D2E/DX2 analytically  !
 ! D211  D(32,30,34,68)        172.6499         calculate D2E/DX2 analytically  !
 ! D212  D(32,30,34,69)        -64.5928         calculate D2E/DX2 analytically  !
 ! D213  D(66,30,34,67)        -65.0942         calculate D2E/DX2 analytically  !
 ! D214  D(66,30,34,68)         53.6433         calculate D2E/DX2 analytically  !
 ! D215  D(66,30,34,69)        176.4006         calculate D2E/DX2 analytically  !
 ! D216  D(25,31,33,51)        174.0582         calculate D2E/DX2 analytically  !
 ! D217  D(25,31,33,52)        -67.5556         calculate D2E/DX2 analytically  !
 ! D218  D(25,31,33,53)         53.429          calculate D2E/DX2 analytically  !
 ! D219  D(35,31,33,51)        -61.8628         calculate D2E/DX2 analytically  !
 ! D220  D(35,31,33,52)         56.5234         calculate D2E/DX2 analytically  !
 ! D221  D(35,31,33,53)        177.508          calculate D2E/DX2 analytically  !
 ! D222  D(47,31,33,51)         54.8295         calculate D2E/DX2 analytically  !
 ! D223  D(47,31,33,52)        173.2156         calculate D2E/DX2 analytically  !
 ! D224  D(47,31,33,53)        -65.7997         calculate D2E/DX2 analytically  !
 ! D225  D(25,31,35,48)        -66.2811         calculate D2E/DX2 analytically  !
 ! D226  D(25,31,35,49)         56.6217         calculate D2E/DX2 analytically  !
 ! D227  D(25,31,35,50)        175.1985         calculate D2E/DX2 analytically  !
 ! D228  D(33,31,35,48)        171.4242         calculate D2E/DX2 analytically  !
 ! D229  D(33,31,35,49)        -65.673          calculate D2E/DX2 analytically  !
 ! D230  D(33,31,35,50)         52.9038         calculate D2E/DX2 analytically  !
 ! D231  D(47,31,35,48)         52.3669         calculate D2E/DX2 analytically  !
 ! D232  D(47,31,35,49)        175.2697         calculate D2E/DX2 analytically  !
 ! D233  D(47,31,35,50)        -66.1535         calculate D2E/DX2 analytically  !
 ! D234  D(27,36,37,38)         42.906          calculate D2E/DX2 analytically  !
 ! D235  D(27,36,37,40)        162.8265         calculate D2E/DX2 analytically  !
 ! D236  D(27,36,37,54)        -79.9581         calculate D2E/DX2 analytically  !
 ! D237  D(36,37,38,19)         44.7764         calculate D2E/DX2 analytically  !
 ! D238  D(36,37,38,22)       -141.0784         calculate D2E/DX2 analytically  !
 ! D239  D(40,37,38,19)        -72.6401         calculate D2E/DX2 analytically  !
 ! D240  D(40,37,38,22)        101.5052         calculate D2E/DX2 analytically  !
 ! D241  D(54,37,38,19)        163.7975         calculate D2E/DX2 analytically  !
 ! D242  D(54,37,38,22)        -22.0573         calculate D2E/DX2 analytically  !
 ! D243  D(36,37,40,42)        179.0833         calculate D2E/DX2 analytically  !
 ! D244  D(36,37,40,44)         55.7113         calculate D2E/DX2 analytically  !
 ! D245  D(36,37,40,55)        -62.7529         calculate D2E/DX2 analytically  !
 ! D246  D(38,37,40,42)        -60.4666         calculate D2E/DX2 analytically  !
 ! D247  D(38,37,40,44)        176.1614         calculate D2E/DX2 analytically  !
 ! D248  D(38,37,40,55)         57.6972         calculate D2E/DX2 analytically  !
 ! D249  D(54,37,40,42)         64.5606         calculate D2E/DX2 analytically  !
 ! D250  D(54,37,40,44)        -58.8114         calculate D2E/DX2 analytically  !
 ! D251  D(54,37,40,55)       -177.2756         calculate D2E/DX2 analytically  !
 ! D252  D(37,40,42,59)        -62.3092         calculate D2E/DX2 analytically  !
 ! D253  D(37,40,42,60)         60.3943         calculate D2E/DX2 analytically  !
 ! D254  D(37,40,42,61)        179.6038         calculate D2E/DX2 analytically  !
 ! D255  D(44,40,42,59)         61.1706         calculate D2E/DX2 analytically  !
 ! D256  D(44,40,42,60)       -176.1259         calculate D2E/DX2 analytically  !
 ! D257  D(44,40,42,61)        -56.9163         calculate D2E/DX2 analytically  !
 ! D258  D(55,40,42,59)       -178.8404         calculate D2E/DX2 analytically  !
 ! D259  D(55,40,42,60)        -56.1369         calculate D2E/DX2 analytically  !
 ! D260  D(55,40,42,61)         63.0727         calculate D2E/DX2 analytically  !
 ! D261  D(37,40,44,56)       -178.9089         calculate D2E/DX2 analytically  !
 ! D262  D(37,40,44,57)        -59.4808         calculate D2E/DX2 analytically  !
 ! D263  D(37,40,44,58)         62.3326         calculate D2E/DX2 analytically  !
 ! D264  D(42,40,44,56)         57.4976         calculate D2E/DX2 analytically  !
 ! D265  D(42,40,44,57)        176.9258         calculate D2E/DX2 analytically  !
 ! D266  D(42,40,44,58)        -61.2609         calculate D2E/DX2 analytically  !
 ! D267  D(55,40,44,56)        -62.288          calculate D2E/DX2 analytically  !
 ! D268  D(55,40,44,57)         57.1402         calculate D2E/DX2 analytically  !
 ! D269  D(55,40,44,58)        178.9535         calculate D2E/DX2 analytically  !
 ! D270  D(16,41,43,97)         60.2817         calculate D2E/DX2 analytically  !
 ! D271  D(16,41,43,98)        179.4004         calculate D2E/DX2 analytically  !
 ! D272  D(16,41,43,99)        -62.5082         calculate D2E/DX2 analytically  !
 ! D273  D(45,41,43,97)       -176.162          calculate D2E/DX2 analytically  !
 ! D274  D(45,41,43,98)        -57.0433         calculate D2E/DX2 analytically  !
 ! D275  D(45,41,43,99)         61.048          calculate D2E/DX2 analytically  !
 ! D276  D(93,41,43,97)        -56.1236         calculate D2E/DX2 analytically  !
 ! D277  D(93,41,43,98)         62.995          calculate D2E/DX2 analytically  !
 ! D278  D(93,41,43,99)       -178.9136         calculate D2E/DX2 analytically  !
 ! D279  D(16,41,45,94)         63.0894         calculate D2E/DX2 analytically  !
 ! D280  D(16,41,45,95)       -178.2169         calculate D2E/DX2 analytically  !
 ! D281  D(16,41,45,96)        -58.6096         calculate D2E/DX2 analytically  !
 ! D282  D(43,41,45,94)        -60.8226         calculate D2E/DX2 analytically  !
 ! D283  D(43,41,45,95)         57.8711         calculate D2E/DX2 analytically  !
 ! D284  D(43,41,45,96)        177.4783         calculate D2E/DX2 analytically  !
 ! D285  D(93,41,45,94)        179.482          calculate D2E/DX2 analytically  !
 ! D286  D(93,41,45,95)        -61.8243         calculate D2E/DX2 analytically  !
 ! D287  D(93,41,45,96)         57.783          calculate D2E/DX2 analytically  !
 --------------------------------------------------------------------------------
 Trust Radius=3.00D-01 FncErr=1.00D-07 GrdErr=1.00D-07
 Number of steps in this run=      2 maximum allowed number of steps=      2.
 GradGradGradGradGradGradGradGradGradGradGradGradGradGradGradGradGradGrad

 Symmetry turned off by external request.
 Stoichiometry    C33H57MgN3O9(2+)
 Framework group  C1[X(C33H57MgN3O9)]
 Deg. of freedom   303
 Full point group                 C1      NOp   1
                          Input orientation:                          
 ---------------------------------------------------------------------
 Center     Atomic      Atomic             Coordinates (Angstroms)
 Number     Number       Type             X           Y           Z
 ---------------------------------------------------------------------
      1          7           0       -2.962845   12.239194   12.590458
      2          6           0       -3.705349   13.509647   12.311818
      3          6           0       -2.739977   14.695248   12.425107
      4          8           0       -1.740968   14.741258   13.171622
      5          6           0       -3.315153   11.325875   13.703298
      6          6           0       -5.022796   13.687400   13.140048
      7          6           0       -6.070464   12.650247   12.682631
      8          6           0       -5.622009   15.103466   13.011906
      9          8           0       -3.101741   15.678657   11.601978
     10          6           0       -1.277979   10.598997   11.752595
     11          6           0       -1.879992   12.006259   11.813244
     12          8           0       -1.411305   12.908771   11.047209
     13          6           0       -1.753154    9.849936   10.473608
     14          6           0       -3.288456    9.710395   10.433760
     15          6           0       -1.084162    8.465649   10.373364
     16          6           0       -2.416462   16.977517   11.644785
     17          8           0        0.187456   10.658363   11.659671
     18          8           0       -0.337466   15.929564   11.001335
     19          8           0        1.725521   13.513452   10.993050
     20          8           0        1.387877   15.334153   13.156794
     21          8           0        0.376226   12.336107   13.189801
     22          7           0        3.121426   12.529849   12.516410
     23          7           0       -0.176042   17.626436   12.530034
     24          6           0        2.394284   11.245908   12.267251
     25          6           0        1.298803   17.642756   12.275744
     26          6           0        0.887928   11.478849   12.441484
     27          6           0        1.850904   16.218396   12.407520
     28          6           0        4.085180   12.711662   13.628094
     29          6           0       -0.816916   18.376401   13.636395
     30          6           0        2.951955   10.020095   13.066135
     31          6           0        2.089011   18.708577   13.106937
     32          6           0        4.373177    9.676945   12.570303
     33          6           0        1.703535   20.127056   12.635561
     34          6           0        2.054972    8.771123   12.940803
     35          6           0        3.618366   18.533569   13.000132
     36          8           0        2.891065   16.039671   11.594646
     37          6           0        3.672963   14.796183   11.630017
     38          6           0        2.758594   13.572592   11.734480
     39          6           0       -0.900458   16.794247   11.747195
     40          6           0        4.479802   14.754886   10.300870
     41          6           0       -2.781223   17.702012   10.317338
     42          6           0        5.365438   13.494367   10.230309
     43          6           0       -2.108165   19.087136   10.230851
     44          6           0        5.332551   16.027237   10.138217
     45          6           0       -4.308519   17.830656   10.168969
     46          1           0        1.432298   17.904953   11.209657
     47          1           0        1.832344   18.577366   14.174431
     48          1           0        3.975504   17.597670   13.461811
     49          1           0        3.964860   18.564399   11.952934
     50          1           0        4.102231   19.366644   13.537030
     51          1           0        2.176863   20.878961   13.289174
     52          1           0        2.070140   20.296857   11.607098
     53          1           0        0.617899   20.317091   12.640614
     54          1           0        4.357829   14.888947   12.486608
     55          1           0        3.731233   14.712070    9.486907
     56          1           0        5.877508   15.979637    9.180045
     57          1           0        4.717421   16.940730   10.130538
     58          1           0        6.082009   16.114772   10.946424
     59          1           0        6.117893   13.483363   11.040166
     60          1           0        4.786473   12.555862   10.274327
     61          1           0        5.916468   13.493079    9.275369
     62          1           0        5.124355   12.750681   13.265331
     63          1           0        3.838678   13.629748   14.182273
     64          1           0        3.994760   11.874558   14.327864
     65          1           0        2.525037   11.013403   11.194026
     66          1           0        2.975107   10.283667   14.139897
     67          1           0        2.545151    7.935852   13.468590
     68          1           0        1.060733    8.908582   13.397264
     69          1           0        1.918538    8.467468   11.888733
     70          1           0        4.334779    9.318951   11.525571
     71          1           0        5.075069   10.525668   12.609234
     72          1           0        4.796928    8.866908   13.187404
     73          1           0       -1.502404   10.004485   12.651586
     74          1           0       -1.430738   10.473300    9.617781
     75          1           0        0.014311    8.535958   10.345826
     76          1           0       -1.373848    7.819303   11.222197
     77          1           0       -1.414491    7.967873    9.445901
     78          1           0       -3.662913    9.096314   11.273485
     79          1           0       -3.812757   10.681369   10.444210
     80          1           0       -3.577512    9.195272    9.502722
     81          1           0       -2.408363   11.065463   14.269538
     82          1           0       -3.993930   11.837278   14.393134
     83          1           0       -3.812237   10.413274   13.338946
     84          1           0       -5.828158   15.369558   11.961020
     85          1           0       -6.580830   15.125391   13.556638
     86          1           0       -4.978472   15.883180   13.452827
     87          1           0       -5.708126   11.609842   12.709526
     88          1           0       -6.961139   12.709648   13.330429
     89          1           0       -6.392339   12.867641   11.648099
     90          1           0       -4.782287   13.545359   14.210201
     91          1           0       -3.999447   13.477968   11.246544
     92          1           0       -2.840907   17.515323   12.507001
     93          1           0       -2.387112   17.063995    9.503495
     94          1           0       -4.734610   18.456074   10.974392
     95          1           0       -4.542638   18.317800    9.207253
     96          1           0       -4.811125   16.850841   10.182513
     97          1           0       -1.006005   19.035715   10.264947
     98          1           0       -2.382404   19.561396    9.273903
     99          1           0       -2.455226   19.758652   11.037604
    100          1           0       -0.048802   18.720286   14.336343
    101          1           0       -1.370775   19.254275   13.267719
    102          1           0       -1.489886   17.706191   14.191877
    103         12           0       -0.001419   14.123000   11.989900
 ---------------------------------------------------------------------
 Rotational constants (GHZ):      0.0746572      0.0745161      0.0423740
 General basis read from cards:  (5D, 7F)
   776 basis functions,  1544 primitive gaussians,   824 cartesian basis functions
   179 alpha electrons      179 beta electrons
       nuclear repulsion energy      7268.5413890649 Hartrees.
 NAtoms=  103 NActive=  103 NUniq=  103 SFac= 1.00D+00 NAtFMM=   60 NAOKFM=T Big=T
 Integral buffers will be    131072 words long.
 Raffenetti 2 integral format.
 Two-electron integral symmetry is turned off.
 Force inversion solution in PCM.
 ------------------------------------------------------------------------------
 Polarizable Continuum Model (PCM)
 =================================
 Model                : PCM (using non-symmetric T matrix).
 Atomic radii         : UFF (Universal Force Field).
 Polarization charges : Total charges.
 Charge compensation  : None.
 Solution method      : Matrix inversion.
 Cavity type          : Scaled VdW (van der Waals Surface) (Alpha=1.100).
 Cavity algorithm     : GePol (No added spheres)
                        Default sphere list used, NSphG=  103.
                        Lebedev-Laikov grids with approx.  5.0 points / Ang**2.
                        Smoothing algorithm: Karplus/York (Gamma=1.0000).
                        Polarization charges: spherical gaussians, with
                                              point-specific exponents (IZeta= 3).
                        Self-potential: point-specific (ISelfS= 7).
                        Self-field    : sphere-specific E.n sum rule (ISelfD= 2).
 1st derivatives      : Analytical E(r).r(x)/FMM algorithm (CHGder, D1EAlg=3).
                        Cavity 1st derivative terms included.
 2nd derivatives      : Analytical E(r).r(xy)/FMM algorithm (CHGder, D2EAlg=3).
                        Cavity 2nd derivative terms included.
 Solvent              : n-Pentadecane, Eps=   2.033300 Eps(inf)=   2.049192
 ------------------------------------------------------------------------------
 One-electron integrals computed using PRISM.
 NBasis=   776 RedAO= T EigKep=  1.94D-03  NBF=   776
 NBsUse=   776 1.00D-06 EigRej= -1.00D+00 NBFU=   776
 Initial guess from the checkpoint file:  "nP_EB11Mg.chk"
 B after Tr=     0.000000    0.000000    0.000000
         Rot=    1.000000    0.000000    0.000000    0.000000 Ang=   0.00 deg.
 Requested convergence on RMS density matrix=1.00D-08 within 128 cycles.
 Requested convergence on MAX density matrix=1.00D-06.
 Requested convergence on             energy=1.00D-06.
 No special actions if energy rises.
 Inv3:  Mode=1 IEnd=    95293488.
 Iteration    1 A*A^-1 deviation from unit magnitude is 3.55D-15 for   1840.
 Iteration    1 A*A^-1 deviation from orthogonality  is 4.55D-15 for   5174   1565.
 Iteration    1 A^-1*A deviation from unit magnitude is 4.44D-15 for   1840.
 Iteration    1 A^-1*A deviation from orthogonality  is 2.45D-14 for   4570   4557.
 Error on total polarization charges =  0.00697
 SCF Done:  E(RB-P86) =  -2332.99913010     A.U. after    1 cycles
            NFock=  1  Conv=0.42D-08     -V/T= 2.0075
 QCSCF skips out because SCF is already converged.
 Range of M.O.s used for correlation:     1   776
 NBasis=   776 NAE=   179 NBE=   179 NFC=     0 NFV=     0
 NROrb=    776 NOA=   179 NOB=   179 NVA=   597 NVB=   597
 Symmetrizing basis deriv contribution to polar:
 IMax=3 JMax=2 DiffMx= 0.00D+00
 G2DrvN: will do   104 centers at a time, making    1 passes.
 Calling FoFCou, ICntrl=  3507 FMM=T I1Cent=   0 AccDes= 0.00D+00.
 NEqPCM:  Using equilibrium solvation (IEInf=0, Eps=   2.0333, EpsInf=   2.0492)
 G2PCM: DoFxE=T DoFxN=T DoGrad=T DoDP/DQ/DG/TGxP=FFFF NFrqRd=   0 IEInf=0 SqF1=F DoCFld=F IF1Alg=4.
 End of G2Drv F.D. properties file   721 does not exist.
 End of G2Drv F.D. properties file   722 does not exist.
 End of G2Drv F.D. properties file   788 does not exist.
          IDoAtm=11111111111111111111111111111111111111111111111111
          IDoAtm=11111111111111111111111111111111111111111111111111
          IDoAtm=111
 NEqPCM:  Using equilibrium solvation (IEInf=0, Eps=   2.0333, EpsInf=   2.0492)
          Differentiating once with respect to electric field.
                with respect to dipole field.
          Differentiating once with respect to nuclear coordinates.
 CalDSu exits because no D1Ps are significant.
          There are   312 degrees of freedom in the 1st order CPHF.  IDoFFX=6 NUNeed=     3.
    312 vectors produced by pass  0 Test12= 1.07D-13 1.00D-09 XBig12= 4.61D+02 3.95D+00.
 AX will form    72 AO Fock derivatives at one time.
    309 vectors produced by pass  1 Test12= 1.07D-13 1.00D-09 XBig12= 1.36D+02 1.63D+00.
    309 vectors produced by pass  2 Test12= 1.07D-13 1.00D-09 XBig12= 4.01D-01 3.68D-02.
    309 vectors produced by pass  3 Test12= 1.07D-13 1.00D-09 XBig12= 3.16D-04 1.02D-03.
    180 vectors produced by pass  4 Test12= 1.07D-13 1.00D-09 XBig12= 4.90D-08 1.02D-05.
     31 vectors produced by pass  5 Test12= 1.07D-13 1.00D-09 XBig12= 4.41D-12 1.81D-07.
      3 vectors produced by pass  6 Test12= 1.07D-13 1.00D-09 XBig12= 1.50D-15 2.73D-09.
 InvSVY:  IOpt=1 It=  1 EMax= 1.42D-14
 Solved reduced A of dimension  1453 with   312 vectors.
 Isotropic polarizability for W=    0.000000      472.78 Bohr**3.
 End of Minotr F.D. properties file   721 does not exist.
 End of Minotr F.D. properties file   722 does not exist.
 End of Minotr F.D. properties file   788 does not exist.

 **********************************************************************

            Population analysis using the SCF density.

 **********************************************************************

 Alpha  occ. eigenvalues --  -46.37865 -18.97541 -18.97520 -18.97519 -18.92708
 Alpha  occ. eigenvalues --  -18.92679 -18.92671 -18.90987 -18.90938 -18.90912
 Alpha  occ. eigenvalues --  -14.19794 -14.19713 -14.19681 -10.18056 -10.18041
 Alpha  occ. eigenvalues --  -10.18028 -10.15016 -10.14964 -10.14944 -10.10309
 Alpha  occ. eigenvalues --  -10.10248 -10.10226 -10.08796 -10.08751 -10.08738
 Alpha  occ. eigenvalues --  -10.05339 -10.05325 -10.05294 -10.03701 -10.03650
 Alpha  occ. eigenvalues --  -10.03629 -10.02749 -10.02691 -10.02665  -9.99375
 Alpha  occ. eigenvalues --   -9.99326  -9.99281  -9.99253  -9.99222  -9.99189
 Alpha  occ. eigenvalues --   -9.99155  -9.99132  -9.99112  -9.98442  -9.98427
 Alpha  occ. eigenvalues --   -9.98422  -3.04405  -1.83504  -1.83503  -1.83500
 Alpha  occ. eigenvalues --   -1.15473  -1.15259  -1.15232  -1.08927  -1.08896
 Alpha  occ. eigenvalues --   -1.08569  -1.06798  -1.06485  -1.06472  -0.98930
 Alpha  occ. eigenvalues --   -0.98849  -0.98809  -0.87403  -0.86291  -0.86271
 Alpha  occ. eigenvalues --   -0.84241  -0.84218  -0.83464  -0.79213  -0.78970
 Alpha  occ. eigenvalues --   -0.78943  -0.77057  -0.77022  -0.76978  -0.75297
 Alpha  occ. eigenvalues --   -0.75280  -0.73055  -0.71348  -0.71197  -0.71169
 Alpha  occ. eigenvalues --   -0.71146  -0.70891  -0.70880  -0.68746  -0.66421
 Alpha  occ. eigenvalues --   -0.66411  -0.63791  -0.63775  -0.63143  -0.61722
 Alpha  occ. eigenvalues --   -0.61619  -0.61596  -0.60788  -0.60735  -0.60382
 Alpha  occ. eigenvalues --   -0.59627  -0.59354  -0.59310  -0.59206  -0.58741
 Alpha  occ. eigenvalues --   -0.58696  -0.56841  -0.56802  -0.56670  -0.55609
 Alpha  occ. eigenvalues --   -0.55479  -0.55447  -0.55345  -0.53746  -0.53244
 Alpha  occ. eigenvalues --   -0.53220  -0.52184  -0.52158  -0.51174  -0.50793
 Alpha  occ. eigenvalues --   -0.50751  -0.49645  -0.49600  -0.49580  -0.49111
 Alpha  occ. eigenvalues --   -0.48976  -0.48939  -0.47997  -0.47969  -0.47762
 Alpha  occ. eigenvalues --   -0.47684  -0.47621  -0.47373  -0.46886  -0.46824
 Alpha  occ. eigenvalues --   -0.46805  -0.46021  -0.45993  -0.45954  -0.45222
 Alpha  occ. eigenvalues --   -0.45202  -0.45191  -0.44263  -0.44229  -0.44215
 Alpha  occ. eigenvalues --   -0.44049  -0.44037  -0.43827  -0.42929  -0.42914
 Alpha  occ. eigenvalues --   -0.42879  -0.42492  -0.42482  -0.42476  -0.41591
 Alpha  occ. eigenvalues --   -0.41572  -0.41316  -0.40782  -0.40449  -0.40423
 Alpha  occ. eigenvalues --   -0.40087  -0.39897  -0.39894  -0.39700  -0.39643
 Alpha  occ. eigenvalues --   -0.39635  -0.39526  -0.39503  -0.39412  -0.39014
 Alpha  occ. eigenvalues --   -0.38973  -0.38920  -0.38695  -0.38663  -0.38631
 Alpha  occ. eigenvalues --   -0.37469  -0.37463  -0.36985  -0.36080  -0.36065
 Alpha  occ. eigenvalues --   -0.35295  -0.35012  -0.34970  -0.34757
 Alpha virt. eigenvalues --   -0.18642  -0.18044  -0.17689  -0.17658  -0.17130
 Alpha virt. eigenvalues --   -0.17128  -0.08423  -0.07222  -0.06370  -0.06289
 Alpha virt. eigenvalues --   -0.05139  -0.05117  -0.04531  -0.03537  -0.03483
 Alpha virt. eigenvalues --   -0.03396  -0.02812  -0.02756  -0.01963  -0.01929
 Alpha virt. eigenvalues --   -0.01354  -0.01149  -0.00927  -0.00877  -0.00619
 Alpha virt. eigenvalues --   -0.00608  -0.00551  -0.00247  -0.00058  -0.00014
 Alpha virt. eigenvalues --    0.00312   0.00680   0.01030   0.01083   0.01431
 Alpha virt. eigenvalues --    0.01452   0.02174   0.02642   0.02688   0.02760
 Alpha virt. eigenvalues --    0.02804   0.03118   0.03179   0.03233   0.03834
 Alpha virt. eigenvalues --    0.03878   0.04110   0.04409   0.04426   0.04974
 Alpha virt. eigenvalues --    0.05110   0.05128   0.05179   0.05491   0.05541
 Alpha virt. eigenvalues --    0.05579   0.06254   0.06309   0.06431   0.06503
 Alpha virt. eigenvalues --    0.06630   0.06964   0.07651   0.07704   0.07918
 Alpha virt. eigenvalues --    0.08048   0.08075   0.08274   0.08405   0.08552
 Alpha virt. eigenvalues --    0.08671   0.08728   0.08941   0.09156   0.09395
 Alpha virt. eigenvalues --    0.09418   0.09766   0.09912   0.09939   0.10060
 Alpha virt. eigenvalues --    0.10293   0.10348   0.10408   0.11001   0.11075
 Alpha virt. eigenvalues --    0.11493   0.11843   0.11910   0.12010   0.12092
 Alpha virt. eigenvalues --    0.12178   0.12564   0.12755   0.12809   0.13115
 Alpha virt. eigenvalues --    0.13512   0.13672   0.14252   0.14882   0.15203
 Alpha virt. eigenvalues --    0.15328   0.15965   0.15999   0.16290   0.17421
 Alpha virt. eigenvalues --    0.17522   0.17783   0.20712   0.20767   0.21131
 Alpha virt. eigenvalues --    0.22197   0.22267   0.22564   0.24215   0.24700
 Alpha virt. eigenvalues --    0.24765   0.25644   0.25706   0.28498   0.29806
 Alpha virt. eigenvalues --    0.29859   0.33599   0.33663   0.33703   0.34360
 Alpha virt. eigenvalues --    0.34634   0.34678   0.34988   0.35103   0.35147
 Alpha virt. eigenvalues --    0.35794   0.35877   0.37009   0.37487   0.37494
 Alpha virt. eigenvalues --    0.37752   0.38391   0.38779   0.38838   0.39310
 Alpha virt. eigenvalues --    0.39337   0.39601   0.40046   0.40158   0.40193
 Alpha virt. eigenvalues --    0.40329   0.40661   0.41279   0.41436   0.42588
 Alpha virt. eigenvalues --    0.42634   0.43472   0.43645   0.43700   0.43892
 Alpha virt. eigenvalues --    0.45039   0.45088   0.45138   0.46194   0.46316
 Alpha virt. eigenvalues --    0.46882   0.47651   0.47676   0.48079   0.48174
 Alpha virt. eigenvalues --    0.48381   0.50226   0.50414   0.50599   0.50675
 Alpha virt. eigenvalues --    0.51518   0.51590   0.52162   0.53336   0.53351
 Alpha virt. eigenvalues --    0.54093   0.54244   0.54325   0.55450   0.55477
 Alpha virt. eigenvalues --    0.55584   0.55959   0.56306   0.56378   0.56872
 Alpha virt. eigenvalues --    0.56909   0.57508   0.57545   0.58010   0.58791
 Alpha virt. eigenvalues --    0.58890   0.59471   0.60099   0.60580   0.60609
 Alpha virt. eigenvalues --    0.61083   0.61142   0.61225   0.63354   0.63647
 Alpha virt. eigenvalues --    0.63685   0.63762   0.64612   0.64800   0.65449
 Alpha virt. eigenvalues --    0.66818   0.66840   0.66956   0.67655   0.67951
 Alpha virt. eigenvalues --    0.67965   0.68247   0.68328   0.68728   0.69241
 Alpha virt. eigenvalues --    0.69409   0.70165   0.70472   0.70642   0.71053
 Alpha virt. eigenvalues --    0.71532   0.71660   0.71966   0.72262   0.72512
 Alpha virt. eigenvalues --    0.73283   0.73710   0.73784   0.73864   0.74535
 Alpha virt. eigenvalues --    0.74546   0.74914   0.75024   0.75091   0.75186
 Alpha virt. eigenvalues --    0.75647   0.75735   0.75847   0.76327   0.76450
[...]
 00000316,-0.00000063,0.00000032,0.00000146,0.00000044,0.00000170,0.000
 00065,-0.00000052,0.00000166,-0.00000080,0.00000140,-0.00000183,-0.000
 00028,0.00000003,0.00000078,-0.00000003,0.00000026,-0.00000095,-0.0000
 0017,-0.00000020,-0.00000095,-0.00000074,0.00000069,0.00000017,-0.0000
 0033,-0.00000006,-0.00000007,0.00000021,0.00000021,-0.00000080,-0.0000
 0002,-0.00000011,-0.00000063,-0.00000005,0.00000023,-0.00000035,0.0000
 0031,-0.00000050,0.00000043,0.,0.00000039,-0.00000044,-0.00000022,-0.0
 0000063,-0.00000015,-0.00000014,-0.00000048,-0.00000048,0.00000198,0.0
 0000037,-0.00000049,-0.00000087,-0.00000054,-0.00000190,0.00000001,-0.
 00000259,0.00000002,0.00000163,0.00000096,-0.00000005,-0.00000388,-0.0
 0000062,-0.00000452,-0.00000370,0.00000034,0.00000141,0.00000318,0.000
 00107,0.00000261,0.00000005,0.00000375,0.00001124,0.00000180,0.0000027
 6,-0.00002885,0.00001365,-0.00000652,-0.00000338,-0.00000317,-0.000000
 19,0.00001292,0.00001096,0.00000336,-0.00000036,0.00000231,0.00000270,
 -0.00000214,-0.00000529,0.00000408,0.00001293,0.00002439,0.00001442,-0
 .00008837,-0.00041540,-0.00026707,0.00005736,0.00003034,-0.00002759,-0
 .00000009,-0.00001774,0.00000145,-0.00000635,-0.00000847,-0.00002195,0
 .00000798,-0.00000010,-0.00000021,0.00002123,-0.00004841,-0.00005195,-
 0.00001642,0.00005372,0.00004250,-0.00011820,0.00005701,0.00001742,-0.
 00385623,-0.00540801,0.00488269,-0.01602249,-0.01294971,0.00943769,0.1
 0756629,0.16163311,-0.00004947,0.00005461,0.00003611,0.00014754,-0.000
 08615,-0.00003697,-0.00033890,-0.00060866,-0.00019328,-0.00001232,0.00
 036332,0.00081784,-0.00001290,-0.00000746,0.00003170,-0.00002912,0.000
 04206,0.00007236,0.00001293,-0.00000745,-0.00003751,-0.00001757,-0.000
 02883,-0.00003229,-0.00016287,0.00044233,0.00016053,0.00003485,-0.0000
 0800,0.00000694,0.00007713,-0.00003382,-0.00007081,-0.00011092,0.00002
 323,0.00009415,-0.00000905,0.00000339,-0.00001166,0.00000228,-0.000004
 92,0.00000172,0.00000381,-0.00000115,0.00000593,0.00042463,-0.00099882
 ,-0.00085552,-0.00005213,-0.00001151,-0.00002094,0.00039389,-0.0019161
 7,-0.00069380,0.00004526,-0.00005219,0.00001207,0.00000462,-0.00014066
 ,0.00003716,-0.00004233,-0.00000582,-0.00001008,0.00000400,-0.00003864
 ,0.00001867,0.01762442,0.00441690,-0.01798764,0.00001126,0.00002156,0.
 00000995,-0.00174028,0.00022641,-0.00265502,0.00004367,0.00002624,0.00
 001500,-0.00022496,0.00028764,-0.00017316,-0.00000668,-0.00000097,0.00
 000219,0.07475675,0.08079957,-0.10594399,-0.00000404,-0.00000115,0.000
 00258,-0.00037920,-0.00018105,-0.00009930,0.00000026,0.00000095,-0.000
 00050,-0.00007438,0.00003701,0.00022548,0.00000309,0.00000017,0.000000
 41,0.00000778,0.00005852,0.00025566,0.00013551,-0.00014578,-0.00000084
 ,-0.00005060,0.00006361,0.00002173,-0.00002534,0.00002896,-0.00003134,
 0.00327657,0.00331734,0.00153836,-0.00000451,-0.00000669,0.00000785,-0
 .00029500,0.00048371,0.00012675,0.00000251,0.00000808,-0.00000753,0.00
 008227,0.00003640,0.00001972,-0.00000220,-0.00000098,-0.00000352,-0.00
 002755,-0.00004593,0.00001004,0.00089571,-0.00012486,-0.00019255,0.000
 18367,-0.00001047,0.00030718,-0.00001734,0.00001474,-0.00000657,-0.000
 12252,-0.00000127,-0.00000868,0.00002998,-0.00000410,0.00000475,-0.000
 02157,0.00001215,-0.00000404,-0.00010866,-0.00003709,0.00000794,-0.000
 08100,0.00017034,-0.00015831,0.00000883,-0.00001853,0.00000047,0.00000
 170,0.00000431,0.00000233,0.00000321,0.00000113,-0.00000109,-0.0000062
 6,-0.00000378,0.,0.00000276,-0.00000238,0.00000232,0.00000031,-0.00000
 129,0.00000168,-0.00000111,-0.00000022,0.00000172,0.00000280,-0.000002
 78,-0.00000156,0.00000085,0.00000087,-0.00000197,-0.00000206,-0.000001
 56,-0.00000033,0.00000017,0.00000147,0.00000290,-0.00000354,-0.0000013
 0,-0.00000065,0.00000073,0.00000043,-0.00000216,-0.00000118,-0.0000007
 9,0.00000011,-0.00000051,-0.00000040,0.00000198,0.00000059,-0.00000080
 ,-0.00000160,0.,-0.00000002,-0.00000104,-0.00000251,0.00000009,0.00000
 043,-0.00000039,-0.00000054,0.00000078,-0.00000323,0.00000352,-0.00000
 072,0.00000158,-0.00000070,0.00000028,-0.00000239,0.00000110,0.0000001
 0,0.00000032,0.00000046,-0.00000038,-0.00000120,0.00000252,-0.00000027
 ,-0.00000081,-0.00000066,-0.00000070,-0.00000335,0.00000195,-0.0000031
 6,-0.00000072,0.00000163,0.00000086,-0.00000437,0.00000854,-0.00000073
 ,0.00000558,-0.00000578,0.00000677,0.00000218,0.00000643,-0.00000715,-
 0.00001297,-0.00000131,-0.00000708,0.00001852,0.00001314,0.00000218,-0
 .00000369,0.00000414,0.00003512,-0.00000039,0.00000971,0.00000296,0.00
 001332,0.00000753,0.00000546,-0.00000263,-0.00000237,0.00000015,0.0000
 0562,0.00000675,-0.00001387,0.00000200,0.00002218,-0.00000894,-0.00203
 602,0.00029453,-0.00111135,0.00008396,-0.00010455,0.00022831,-0.000004
 33,0.00001973,-0.00001920,0.00001550,-0.00001090,0.00002065,-0.0000140
 8,0.00000495,-0.00001075,-0.00004436,-0.00005696,0.00003402,-0.0000332
 8,-0.00002918,0.00000342,0.00000446,0.00001869,-0.00002164,-0.01163392
 ,-0.01261093,0.01197259,0.00652031,0.00753289,-0.00447737,-0.08734694,
 -0.08180170,0.11910703,0.00390092,0.00109819,-0.00278846,0.00005005,0.
 00009840,0.00024357,-0.02535149,0.00459950,-0.01256489,-0.00013847,0.0
 0184447,0.01016064,-0.00033698,-0.00134896,0.00155175,-0.00162673,0.00
 087644,0.00152126,0.00044343,-0.00042757,-0.00083083,0.00029062,0.0002
 0409,-0.00034539,0.00167309,-0.00757291,0.00686091,0.00492336,0.000833
 11,-0.00048503,-0.00871835,-0.01705116,0.00982706,-0.01411444,-0.00320
 740,-0.01395493,-0.00119894,0.00014889,-0.00113353,0.00013627,-0.00026
 573,0.00004732,0.00055891,-0.00000511,0.00046079,0.00148757,0.00574954
 ,0.00044260,-0.00598372,-0.00238114,-0.00466421,-0.00539287,0.00044793
 ,-0.00499452,-0.01419385,0.00736802,0.01783374,-0.00529371,0.00426701,
 -0.00853844,-0.00501321,-0.00064576,-0.00248388,0.00309447,-0.00662891
 ,0.00532522,-0.00331855,-0.00205182,-0.00284289,0.00150180,0.00326435,
 0.00177516,0.00356470,0.00048240,-0.00201188,0.00389951,0.00932865,0.0
 0348316,-0.00694937,-0.01856592,0.00954146,-0.00185917,-0.00064471,-0.
 00103531,-0.00046796,0.00024753,-0.00044404,-0.00044230,0.00056050,-0.
 00065694,-0.00127306,-0.00032086,-0.00085424,-0.00000979,-0.00012372,0
 .00036062,0.00046377,0.00010602,0.00047286,0.00055588,-0.00006284,0.00
 020862,0.00017265,-0.00014242,0.00015978,0.00274492,0.00148651,-0.0022
 8472,-0.00121020,0.00036462,-0.00013882,-0.02603465,0.00469744,-0.0122
 6032,0.00178181,0.00892075,0.00323710,-0.00043480,0.00085436,0.0017126
 1,-0.00026683,-0.00007351,-0.00058774,0.00001865,0.00023460,-0.0005034
 6,0.00048994,0.00008457,0.00042646,0.00020857,-0.00052967,-0.00083772,
 -0.00007859,0.00000410,0.00035638,-0.00070954,0.00065895,-0.00004597,0
 .00014831,-0.00002039,0.00019740,-0.00027296,0.00002656,-0.00033021,-0
 .00010640,-0.00016491,0.00009044,-0.00005607,0.00018683,0.00006445,-0.
 00005867,0.00022734,-0.00009527,-0.00002547,-0.00001144,-0.00001206,-0
 .00017147,0.00013443,-0.00003623,0.00048694,0.00036873,0.00010434,-0.0
 0006269,-0.00017671,0.00025209,0.00030975,0.00026005,-0.00009389,-0.00
 011219,-0.00002855,0.00016964,0.00000433,0.00002030,0.00007506,-0.0000
 1551,-0.00004180,0.00013407,-0.00014190,0.00023212,0.00026109,0.000252
 77,-0.00004247,-0.00015090,0.00047883,0.00017053,0.00025291,0.00002867
 ,0.00019511,0.00009126,0.00033560,0.00003655,0.00046205,-0.00070099,-0
 .00006075,0.00002109,0.00018735,-0.00002735,-0.00001014,-0.00010793,-0
 .00022304,-0.00000332,-0.00013814,0.00003253,0.00008014,-0.00000026,-0
 .00001643,-0.00009599,-0.00002325,0.00002013,-0.00007872,-0.00030905,0
 .00008512,0.00000848,0.00010907,-0.00016947,0.00000148,-0.00085613,0.0
 0088732,-0.00002082,0.00019161,-0.00023399,-0.00016190,-0.00020327,0.0
 0011541,0.00004173,-0.00001323,0.00005131,-0.00001462,-0.00016392,0.00
 023699,-0.00000566,-0.00005151,-0.00006349,-0.00006251,-0.00035149,0.0
 0007927,-0.00023427,-0.00006740,0.00013677,0.00008176,0.00004373,0.000
 21506,-0.00037221,0.00003568,0.00010896,-0.00023987,0.00021910,0.00051
 929,-0.00035235,-0.00019116,-0.00000966,-0.00000857,0.00027082,-0.0000
 7438,-0.00006508,-0.00016156,0.00017775,0.00023637,-0.00017876,0.00001
 068,0.00001929,0.00036960,0.00018110,0.00008182,-0.00004956,-0.0000104
 9,0.00008538,0.00021801,0.00003502,-0.00015931,-0.00007042,0.00025850,
 0.00005530,-0.00069633,-0.00062492,0.00002632,0.00013619,0.00008519,-0
 .00012197,0.00003423,-0.00000119,-0.00009697,0.00008932,-0.00015838,0.
 00010174,-0.00029712,-0.00000548,-0.00016367,-0.00013962,0.00001164,-0
 .00006768,-0.00006377,-0.00022964,0.00004990,-0.00002662,-0.00004446,-
 0.00007277,0.00011924,-0.00017601,-0.00023061,0.00002480,0.00008808,0.
 00008163,0.00002358,0.00019052,0.00028996,0.10022393,0.00610520,-0.001
 66192,-0.00492525,-0.00248433,0.00330899,-0.00223380,0.00805548,0.0064
 4915,0.00368582,-0.00220103,-0.00653145,-0.00332724,-0.00012880,-0.001
 33760,0.00040505,0.00014580,-0.00059742,-0.00012664,-0.00010447,0.0001
 7232,0.00007596,0.00022574,0.00039701,-0.00003104,-0.00216777,-0.00250
 428,0.00138271,-0.00389696,-0.00133001,0.00046715,-0.01474957,-0.01301
 186,0.00974137,-0.00677947,-0.00869081,-0.01234794,-0.00047689,-0.0001
 6485,-0.00131886,-0.00028670,0.00028820,0.00050559,0.00037434,-0.00011
 533,0.00070840,0.00115719,0.00189438,0.00011003,0.00353092,0.00494703,
 0.00486811,-0.00202851,-0.01550660,0.01817481,0.00382150,-0.00869666,-
 0.00604853,0.00019513,-0.00247916,-0.00755004,-0.00422256,-0.00186117,
 0.01095913,-0.00169882,-0.00067865,0.00019978,0.00294341,0.00566206,0.
 00455680,0.00079483,0.00199124,0.00132708,-0.00202194,-0.00016793,0.00
 084505,0.01185820,-0.02317450,-0.01243526,-0.01545300,-0.01224999,0.00
 937389,0.00057816,0.00006175,0.00110759,0.00142533,-0.00129360,-0.0015
 1861,-0.00012863,-0.00181906,0.00138398,-0.00104532,-0.00090218,-0.001
 26850,0.00016859,0.00062477,-0.00074951,0.00044354,0.00013029,0.000684
 18,-0.00006130,0.00013344,-0.00030608,-0.00014998,0.00050421,0.0003216
 9,0.00714169,-0.00362104,-0.00680324,-0.00427587,0.00459733,-0.0004141
 0,0.00716788,0.00423281,0.00334249,0.01131053,-0.02356809,-0.01243143,
 0.00019218,-0.00081395,-0.00029791,-0.00074316,-0.00096442,0.00165691,
 0.00017739,0.00040423,-0.00023370,0.00006164,-0.00008072,-0.00028804,-
 0.00017510,0.00026271,0.00003733,0.00039590,0.00051911,-0.00074892,0.0
 0012596,-0.00031878,-0.00002761,0.00000807,0.00017760,0.00011021,-0.00
 012506,-0.00013320,-0.00011373,-0.00004840,-0.00008867,-0.00003542,0.0
 0025243,0.00012820,0.00004422,0.00006676,0.00033306,-0.00005088,-0.000
 01604,-0.00002254,-0.00010763,0.00000319,-0.00025054,0.00000572,-0.000
 09798,-0.00116437,0.00001636,0.00010099,0.00026069,-0.00003486,0.00003
 899,-0.00015122,-0.00005787,-0.00005599,-0.00029370,0.00016247,-0.0000
 3595,-0.00002880,0.00003381,0.00005048,-0.00003134,-0.00001170,-0.0000
 1828,-0.00027294,-0.00005555,0.00005508,-0.00017321,0.00002332,-0.0003
 4934,-0.00000207,-0.00023033,-0.00024500,0.00003012,-0.00035688,0.0000
 5904,-0.00000374,0.00000684,-0.00061567,-0.00033298,0.00004145,-0.0000
 1764,0.00014432,-0.00023392,-0.00015878,0.00018100,-0.00006418,-0.0001
 2770,-0.00024338,0.00024888,0.00009546,-0.00017921,-0.00003370,0.00002
 469,-0.00001588,0.00005160,-0.00006286,-0.00013903,0.00003141,-0.00032
 848,0.00015827,0.00011394,0.00045724,0.00019945,-0.00006048,-0.0000263
 9,-0.00004957,-0.00020729,0.00008240,-0.00022988,-0.00018865,-0.000013
 92,0.00000826,-0.00010864,0.00002283,0.00032541,0.00009994,0.00002249,
 -0.00004417,-0.00011220,-0.00013120,-0.00012542,-0.00020682,0.00023103
 ,0.00015601,0.00009691,-0.00010790,-0.00002895,0.00003929,0.00012561,0
 .00029593,-0.00041175,0.00001125,0.00030571,-0.00010815,0.00013184,-0.
 00000494,0.00010006,-0.00000238,-0.00020177,0.00003972,-0.00002835,-0.
 00021606,-0.00020643,-0.00015227,-0.00023787,-0.00003143,0.00001464,-0
 .00009246,-0.00005838,-0.00000180,-0.00001540,0.00003446,0.00004210,0.
 00015317,0.00013442,-0.00029930,-0.00093306,-0.00000114,-0.00094527,0.
 00000333,-0.00001824,0.00029828,-0.00001224,0.00021693,-0.00010932,0.0
 0002523,0.00008184,-0.00037940,0.00007028,-0.00006050,-0.00005669,-0.0
 0012445,0.00005668,-0.00032172,-0.00027376,0.00024012,-0.00014248,0.00
 014028,-0.00012681,0.00002335,-0.00004879,0.00011568,-0.00015798,0.000
 21642,0.00039445,-0.00038201,0.00045702,0.00034534,-0.00022241,0.00010
 629,0.00026214,0.00044938,0.09985055,0.00460590,0.00038961,-0.00524661
 ,-0.00167545,0.00170146,-0.00065694,0.01172260,-0.00096368,0.01618151,
 -0.00376458,-0.00181797,-0.01214282,0.00024752,-0.00075981,-0.00000494
 ,0.00036265,-0.00040810,-0.00040305,-0.00015008,0.00015459,0.00018291,
 0.00007071,0.00007293,0.00002761,-0.00272161,0.00518217,-0.00774864,0.
 00323514,0.00104291,0.00044437,-0.00428095,-0.00669080,0.01182650,-0.0
 0633023,-0.00359849,-0.01474022,-0.00039755,0.00000678,0.00006135,0.00
 001735,-0.00010878,-0.00017274,0.00015740,0.00002353,-0.00003819,-0.00
 073335,-0.00324014,0.00056202,-0.00337030,-0.00522007,-0.00759594,-0.0
 0015804,0.00745603,-0.01469487,0.00537258,-0.00452523,-0.01572461,-0.0
 0011848,0.00325225,-0.01232567,0.00307015,-0.00153526,-0.01210882,-0.0
 0288264,0.00392197,-0.00546132,-0.00187135,-0.00432224,-0.00546957,-0.
 00072453,-0.00252385,-0.00073473,0.00238372,0.00060730,-0.00066427,-0.
 00465717,0.01125321,0.01630877,-0.00663906,-0.00955345,0.01616281,0.00
 058004,0.00067871,0.00006548,-0.00085694,0.00015962,0.00002937,0.00019
 110,0.00054212,-0.00043159,-0.00051703,-0.00008262,-0.00037708,-0.0000
 5049,-0.00022722,0.00018455,0.00019995,0.00005701,0.00016905,-0.000112
 64,0.00002204,0.00003764,0.00003336,-0.00010201,0.00002481,0.00585482,
 -0.00018235,-0.00766611,-0.00245805,0.00222740,0.00057897,0.00915707,-
 0.00034340,0.01228702,-0.00423420,0.00781409,0.01220917,0.00023112,-0.
 00036597,0.00003355,0.00020257,0.00036771,0.00003459,0.00007569,0.0000
 5855,-0.00017533,-0.00009375,0.00003958,-0.00018338,-0.00009891,0.0001
 4708,-0.00002203,-0.00007265,-0.00016060,-0.00001935,-0.00042680,0.000
 78047,-0.00009212,0.00005725,-0.00011604,-0.00004784,-0.00014856,0.000
 01936,-0.00005840,-0.00002054,0.00001792,-0.00001175,-0.00001600,0.000
 04582,0.00001129,-0.00004259,0.00008856,-0.00003660,0.00000382,0.00002
 649,-0.00002453,-0.00004191,0.00005605,-0.00000055,-0.00029172,-0.0008
 9759,0.00001367,0.00012276,0.00012659,-0.00030207,0.00003188,-0.000085
 62,-0.00000142,-0.00000851,-0.00009262,0.00009531,-0.00006436,-0.00003
 609,-0.00001561,-0.00005830,0.00000331,-0.00004370,0.00005787,-0.00009
 633,0.00000011,0.00003001,-0.00004701,0.00001606,-0.00015606,-0.000111
 67,-0.00011079,-0.00042815,-0.00002809,-0.00034945,-0.00030110,-0.0000
 8075,-0.00032543,0.00090271,-0.00002710,-0.00011662,-0.00011800,0.0000
 1522,-0.00003551,0.00005172,-0.00001020,0.00000941,0.00008519,0.000106
 90,-0.00002757,0.00001753,0.00001448,-0.00001525,0.00001683,-0.0000187
 6,-0.00002256,0.00007748,0.00000790,0.00000199,0.00010653,-0.00000528,
 -0.00004124,-0.00061756,0.00066913,0.00000977,0.00003471,-0.00018442,-
 0.00028116,-0.00007209,0.00006897,0.00008985,0.00000018,0.00006943,-0.
 00001326,-0.00008832,0.00000645,-0.00000234,0.00002703,0.00004100,-0.0
 0004195,-0.00010492,-0.00001078,-0.00000233,-0.00005737,-0.00000677,0.
 00001039,0.00015653,0.00034460,-0.00030753,0.00007798,0.00027817,-0.00
 030921,-0.00000664,0.00017642,-0.00010989,0.00000321,-0.00002398,-0.00
 001507,-0.00003492,-0.00003206,0.00001282,0.00005119,-0.00014148,-0.00
 005239,-0.00002774,-0.00005984,0.00000085,-0.00006112,-0.00008272,-0.0
 0003672,-0.00002273,-0.00000736,-0.00002465,0.00005537,0.00009202,-0.0
 0005491,-0.00045773,-0.00074304,-0.00008415,0.00092148,0.00022238,0.00
 001173,-0.00018091,0.00005367,-0.00029544,0.00006475,-0.00003789,-0.00
 001589,0.00005609,0.00007129,-0.00000376,0.00009137,0.00003046,0.00008
 426,0.00007086,0.00009324,0.00000874,0.00002631,0.00005163,0.00001262,
 0.00002747,-0.00004880,-0.00004244,0.00020847,-0.00021500,-0.00031930,
 0.00016681,-0.00008372,-0.00011164,0.00023230,-0.00035021,-0.00035586,
 0.00121949,-0.00034330,0.04116677\\-0.00000007,0.00000070,0.00000118,0
 .00000008,0.00000093,0.00000089,0.00000058,0.00000025,0.00000036,0.000
 00045,0.00000092,0.00000106,-0.00000035,0.00000162,0.00000041,0.,0.000
 00138,0.00000179,-0.00000013,0.00000194,0.00000198,0.00000083,0.000002
 14,0.00000165,0.00000046,0.00000142,0.00000092,-0.00000111,0.00000013,
 0.00000013,-0.00000143,0.00000090,0.00000123,-0.00000078,0.00000059,0.
 00000022,-0.00000168,0.00000058,0.00000076,-0.00000209,0.00000113,0.00
 000108,-0.00000241,0.00000023,0.00000027,0.00000060,0.00000059,0.00000
 048,-0.00000148,-0.00000033,-0.00000022,0.00000086,-0.00000061,-0.0000
 0007,-0.00000064,-0.00000038,-0.00000090,0.00000083,-0.00000005,-0.000
 00095,0.00000001,-0.00000037,-0.00000003,-0.00000025,-0.00000033,-0.00
 000116,0.00000153,0.00000002,0.00000002,-0.00000113,-0.00000090,-0.000
 00082,0.00000069,-0.00000030,-0.00000061,-0.00000047,0.00000045,0.0000
 0017,0.00000066,-0.00000125,0.00000032,-0.00000039,-0.00000137,-0.0000
 0121,0.00000188,0.00000011,0.,-0.00000093,-0.00000075,-0.00000059,0.00
 000197,-0.00000063,-0.00000058,-0.00000134,-0.00000139,-0.00000110,0.0
 0000181,-0.00000074,-0.00000068,-0.00000167,-0.00000067,-0.00000043,0.
 00000171,-0.00000114,-0.00000098,0.00000063,-0.00000115,-0.00000090,0.
 00000012,-0.00000085,-0.00000108,0.00000004,-0.00000202,-0.00000017,0.
 00000051,0.00000103,0.00000052,-0.00000021,-0.00000148,-0.00000151,0.0
 0000092,0.00000097,0.00000065,-0.00000074,-0.00000188,-0.00000151,0.00
 000133,0.00000077,0.00000062,0.00000017,-0.00000169,-0.00000156,0.0000
 0066,0.00000145,0.00000128,0.00000119,-0.00000054,-0.00000057,0.000002
 12,-0.00000060,-0.00000056,0.00000150,-0.00000114,-0.00000132,0.000001
 43,-0.00000133,-0.00000122,0.00000213,-0.00000131,-0.00000131,0.000002
 61,-0.00000058,-0.00000079,0.00000206,-0.00000070,-0.00000080,0.000002
 45,-0.00000009,-0.00000027,0.00000043,-0.00000158,-0.00000126,-0.00000
 047,-0.00000128,-0.00000111,-0.00000019,-0.00000204,-0.00000171,0.0000
 0034,-0.00000160,-0.00000145,0.00000041,-0.00000204,-0.00000178,-0.000
 00052,-0.00000200,-0.00000175,-0.00000105,-0.00000159,-0.00000131,-0.0
 0000101,-0.00000200,-0.00000165,-0.00000004,-0.00000162,-0.00000135,0.
 00000047,-0.00000115,-0.00000112,0.00000006,-0.00000132,-0.00000113,-0
 .00000124,-0.00000092,-0.00000047,-0.00000055,-0.00000104,-0.00000083,
 -0.00000164,-0.00000085,-0.00000060,-0.00000117,-0.00000032,-0.0000001
 7,-0.00000187,-0.00000070,-0.00000038,-0.00000164,-0.00000147,-0.00000
 113,-0.00000105,-0.00000167,-0.00000134,-0.00000132,-0.00000159,-0.000
 00124,-0.00000122,0.00000033,0.00000060,-0.00000189,0.00000053,0.00000
 042,-0.00000235,-0.00000006,0.00000013,-0.00000219,0.00000034,0.000000
 59,-0.00000271,0.00000040,0.00000058,-0.00000184,0.00000122,0.00000113
 ,-0.00000166,0.00000118,0.00000103,-0.00000232,0.00000108,0.00000115,-
 0.00000036,0.00000101,0.00000064,-0.00000015,0.00000143,0.00000116,-0.
 00000103,0.00000150,0.00000114,0.00000038,0.00000182,0.00000152,0.0000
 0079,0.00000223,0.00000185,0.00000097,0.00000168,0.00000121,-0.0000006
 0,0.00000186,0.00000155,-0.00000018,0.00000238,0.00000202,-0.00000057,
 0.00000207,0.00000178,0.00000055,0.00000151,0.00000136,-0.00000042,0.0
 0000156,0.00000134,0.00000123,0.00000083,0.00000072,0.00000026,0.00000
 056,0.00000060,0.00000104,0.00000153,0.00000123,0.00000066,0.00000148,
 0.00000118,0.00000029,0.00000153,0.00000136,0.00000101,0.00000035,0.00
 000003,0.00000104,0.00000069,0.00000055,0.00000147,0.00000068,0.000000
 60,0.00000220,0.00000015,-0.00000010,0.00000216,0.00000051,0.00000028,
 0.00000183,0.00000052,0.00000040,0.00000013,0.00000018,-0.00000037\\\@


 THE FIRST AND LAST THING REQUIRED OF GENIUS IS THE LOVE OF TRUTH.

                          -- GOETHE
 Job cpu time:       0 days 23 hours 29 minutes 50.5 seconds.
 File lengths (MBytes):  RWF=   7414 Int=      0 D2E=      0 Chk=     71 Scr=      1
 Normal termination of Gaussian 09 at Sat Nov  3 02:57:14 2018.
